 --invoking executable--
/home/qc/cfour_v2.1_intel_2017_eland2/bin/xjoda


   *************************************************************************
         <<<     CCCCCC     CCCCCC   |||     CCCCCC     CCCCCC   >>>
       <<<      CCC        CCC       |||    CCC        CCC         >>>
      <<<      CCC        CCC        |||   CCC        CCC            >>>
    <<<        CCC        CCC        |||   CCC        CCC              >>>
      <<<      CCC        CCC        |||   CCC        CCC            >>>
       <<<      CCC        CCC       |||    CCC        CCC         >>>
         <<<     CCCCCC     CCCCCC   |||     CCCCCC     CCCCCC   >>>
   *************************************************************************

     ****************************************************************
     * CFOUR Coupled-Cluster techniques for Computational Chemistry *
     ****************************************************************
 

   Department of Chemistry                Institut fuer Physikalische Chemie
   University of Florida                  Universitaet Mainz
   Gainesville, FL 32611, USA             D-55099 Mainz, Germany

   Department of Chemistry                Fakultaet fuer Chemie und Biowiss.
   Johns Hopkins University               Karlsruher Institut fuer Technologie
   Baltimore, MD 21218, USA               D-76131 Karlsruhe, Germany

   Department of Chemistry                Department of Physical Chemistry
   Southern Methodist University          Eotvos Lorand University
   Dallas, TX 75275, USA                  H-1053 Budapest, Hungary

 
                       Version 2.1
 
                     node18                                            
                     Fri 04 Nov 2022 09:26:54 AM CDT                   
                     integer*8 version is running
 
********************************************************************************
*                          Input from ZMAT file                                *
********************************************************************************
h2o AUG-PVTZ CC3                                                                
H        0.0000000000       -1.5499689432       -0.9712071212                   
O        0.0000000000        0.0093424435        0.1195400951                   
H        0.0000000000        1.5406264997       -0.9645971639                   
                                                                                
                                                                                
                                                                                
*CFOUR(CALC=CC3,BASIS=AUG-PVTZ,COORDINATES=CARTESIAN,UNITS=BOHR                 
CC_CONV=9                                                                       
LINEQ_CONV=12                                                                   
SCF_CONV=9                                                                      
ESTATE_CONV=10                                                                  
CHARGE=0                                                                        
MULTIPLICITY=1                                                                  
FROZEN_CORE=ON                                                                  
RELATIVISTIC=OFF                                                                
REFERENCE=RHF                                                                   
EXCITE=EOMIP                                                                    
ESTATE_SYM=0/1                                                                  
MEM_UNIT=GB,MEMORY_SIZE=32)                                                     
                                                                                
H:APVTZ-X2C                                                                     
O:APVTZ-X2C                                                                     
H:APVTZ-X2C                                                                     
                                                                                
********************************************************************************
    -------------------------------------------------------------------
                    CFOUR Control Parameters 
    -------------------------------------------------------------------
        External           Internal           Value            Units
          Name               Name
    -------------------------------------------------------------------
       ABCDTYPE             IABCDT         STANDARD    [  0]    ***   
       ANHARMONIC           IANHAR         OFF         [  0]    ***   
       ANH_ALGORIT          IANALG         STANDARD    [  0]    ***   
       ANH_DERIVAT          IANDER         SECOND      [  1]    ***   
       ANH_MODE             ANHMOD         VIBRATION   [  0]    ***   
       ANH_STEPSIZ          ICUBST             50000          x 10-6  
       ANH_SYMMETR          IANHSM         ABELIAN     [  0]    ***   
       AO_LADDERS           IAOLAD         SINGLEPASS  [  1]    ***   
       AV_SCF               IAVSCF         OFF         [  0]    ***   
       BASIS                IBASIS         AUG-PVTZ    [ 34]    ***   
       BOTHVECTORS          BOTHVC         OFF         [  0]    ***   
       BOX_POTENT           IPIAB          OFF         [  0]    ***   
       BREIT                IBREIT         OFF         [  0]    ***   
       BRUCK_CONV           IBRTOL          10D-  4             ***   
       BRUECKNER            IBRKNR         OFF         [  0]    ***   
       BUFFERSIZE           IBUFFS              4096            ***   
       CACHE_RECS           ICHREC             10               ***   
       CALCLEVEL            ICLLVL         CC3         [ 32]    ***   
       CCORBOPT             ICCORB         OFF         [  0]  x 0.01  
       CC_CONV              ICCCNV          10D-  9             ***   
       CC_EXPORDER          ICCEOR              5               ***   
       CC_EXTRAPOL          ICCEXT         DIIS        [  1]    ***   
       CC_GUESS             ICCGES         MP2         [  0]    ***   
       CC_MAXCYC            ICCCYC            100              cycles 
       CC_PROGRAM           ICCPRO         VCC         [  0]    ***   
       CHARGE               ICHRGE              0               ***   
       CHOLESKY             ICHOLE         OFF         [  0]    ***   
       CIS_CONV             ICISTL              5               ***   
       COMM_SIZE            IPSIZE            ***               ***   
       CONSTANT             ICONST         OLD         [  1]    ***   
       CONTINUUM            ICONTU         NONE        [  0]    ***   
       CONTRACTION          ICNTYP         GENERAL     [  1]    ***   
       COORDINATES          ICOORD         CARTESIAN   [  1]    ***   
       CPHF_CONVER          ICPHFT          10D- 16             ***   
       CPHF_MAXCYC          ICPHFC             64              cycles 
       CUBIC                ICUBIC         OFF         [  0]    ***   
       CURVILINEAR          ICURVY         OFF         [  0]    ***   
       DBOC                 IDBOC          OFF         [  0]    ***   
       DCT                  IDCT           OFF         [  0]    ***   
       DERIV_LEV            IDRLVL         ZERO        [  0]    ***   
       DEVMEM_SIZE          IDVMEM         *********           MByte  
       DIAG_MRCC            IEOMST          10D-  0             ***   
       DIFF_TYPE            IDIFTY         RELAXED     [  0]    ***   
       DIRECT               IDIRCT         OFF         [  0]    ***   
       DROPMO               IDRPMO      NONE         
       ECP                  IECP           OFF         [  0]    ***   
       EIGENVECTOR          IVEC                1               ***   
       EL_ANHARM            IELANH         OFF         [  0]    ***   
       EOMFOLLOW            IEOMSR         ENERGY      [  0]    ***   
       EOMIP                IEOMIP         OFF         [  0]    ***   
       EOMLEVEL             HBARFM         SAME        [  0]    ***   
       EOM_MRCC             IMRCCE         NEW         [  1]    ***   
       EOM_NONIT            EOMNON         OFF         [  0]    ***   
       EOM_NSING            IEOMSI          10D-  0             ***   
       EOM_NSTATES          IMRCCD         DAVIDSON    [  0]    ***   
       EOM_NTRIP            IEOMTR          10D-  0             ***   
       EOM_ORDER            IEXORD         ENERGY      [  0]    ***   
       EOM_PROPSTA          IEOMST              0               ***   
       ESTATE_CONV          IEXTOL          10D- 10             ***   
       ESTATE_DIAG          IEXDIG         ITERATIVE   [  0]    ***   
       ESTATE_LOCK          IESLOC         ON          [  1]    ***   
       ESTATE_MAXC          IEXMXC             40               ***   
       ESTATE_PROP          IEXPRP         OFF         [  0]    ***   
       ESTATE_SYM           IEXSYM   0,  1,
       EVAL_HESS            IRECAL              0            # of cyc.
       EXCITATION           IEXCIT              0               ***   
       EXCITE               IEXCIT         EOMIP       [  4]    ***   
       EXTERN_POT           IEXPOT         OFF         [  0]    ***   
       FCGRADNEW            IFCGNW         OFF         [  0]    ***   
       FC_FIELD             IFINFC              0             x 10-6  
       FD_CALTYPE           IFDCAL         GRADONLY    [  0]    ***   
       FD_PROJECT           IFDPRJ         OFF         [  1]    ***   
       FD_STEPSIZE          IDISFD              0            10-4 bohr
       FD_USEGROUP          IFDGRP         FULL        [  0]    ***   
       FILE_RECSIZ          IFLREC              4096           words  
       FINITE_PERT          IFIPER              0             x 10-6  
       FIXGEOM              IFIXGM         OFF         [  0]    ***   
       FOCK                 IFOCK          AO          [  1]    ***   
       FREQ_ALGORI          IVIALG         STANDARD    [  0]    ***   
       FROZEN_CORE          IFROCO         ON          [  1]    ***   
       GAMMA_ABCD           IGABCD         STORE       [  0]    ***   
       GAMMA_ABCI           IGABCI         STORE       [  0]    ***   
       GENBAS_1             IGNBS1              0               ***   
       GENBAS_2             IGNBS2              0               ***   
       GENBAS_3             IGNBS3              0               ***   
       GENBAS_4             IGNBS4              0               ***   
       GEO_CONV             ICONTL              5              H/bohr 
       GEO_MAXCYC           IOPTCY             50               ***   
       GEO_MAXSTEP          IMXSTP            300            millibohr
       GEO_METHOD           INR            SINGLE_POINT[  5]    ***   
       GIAO                 IGIAO          OFF         [  1]    ***   
       GIMIC                IGIMIC         OFF         [  0]    ***   
       GRID                 IGRID          OFF         [  0]    ***   
       GRID_ALGO            IGALGO         SERIAL      [  0]    ***   
       GUESS                IGUESS         MOREAD      [  0]    ***   
       HBAR                 IHBAR          ON          [  1]    ***   
       HESS_TYPE            IHESTP         SCF         [  0]    ***   
       HF2_FILE             IHF2Fl         USE         [  1]    ***   
       HFSTABILITY          ISTABL         OFF         [  0]    ***   
       INCORE               INCORE         OFF         [  0]    ***   
       INPUT_MRCC           IMRCC          ON          [  1]    ***   
       INTEGRALS            INTTYP         VMOL        [  1]    ***   
       JODA_PRINT           IJPRNT              0               ***   
       KEYWORD_OUT          IDMPKW         NO          [  0]    ***   
       LINDEP_TOL           ILINDP              8               ***   
       LINEQ_CONV           IZTACN          10D- 12           cycles  
       LINEQ_EXPOR          ILMAXD              5               ***   
       LINEQ_MAXCY          ILMAXC            100               ***   
       LINEQ_TYPE           ILTYPE         DIIS        [  1]    ***   
       LOCK_ORBOCC          ILOCOC         OFF         [  0]    ***   
       MEMORY_SIZE          IMEMSZ         *********           words  
       MEM_UNIT             IMEMU          GB          [  3]    ***   
       MRCC                 IMRCCC         OFF         [  0]    ***   
       MULTIPLICTY          IMULTP              1               ***   
       NACOUPLING           IVCOUP         OFF         [  0]    ***   
       NEGEVAL              IDIE           ABORT       [  0]    ***   
       NEWNORM              INEWNO         OFF         [  0]    ***   
       NON-HF               INONHF         OFF         [  0]    ***   
       NTOP_TAMP            ITOPT2             15               ***   
       NUC_MODEL            INUCMO         POINT       [  0]    ***   
       OCCUPATION           IOCCU   ESTIMATED BY SCF 
       OPEN-SHELL           IOPEN          SPIN-ORBITAL[  0]    ***   
       OPTVIB               IOPTVB         OFF         [  0]    ***   
       ORBITALS             IORBTP         STANDARD    [  0]    ***   
       PARALLEL             IPARAL         ON          [  1]    ***   
       PARA_INT             IPINTS         ON          [  1]    ***   
       PARA_PRINT           IPPRIN              0               ***   
       PERT_ORB             IPTORB         STANDARD    [  0]    ***   
       POINTS               IGRDFD              0               ***   
       PRINT                IPRNT               0               ***   
       PROPS                IPROPS         OFF         [  0]    ***   
       PROP_INTEGR          IINTYP         INTERNAL    [  0]    ***   
       PSI                  IPSI           OFF         [  0]    ***   
       QC_ALG               IQCALG         FLM         [  0]    ***   
       QC_LINALG            IQCLIN         TRIDIAG     [  2]    ***   
       QC_MAXCYC            IQCMAX          10D-100           cycles  
       QC_MAXSCFCY          IQCMSC          10D- 15           cycles  
       QC_RTRUST            IQCRTR          10D-  0           x 10-3  
       QC_SKIPSCF           IQCSKI         OFF         [  0]    ***   
       QC_START             IQCSTA          10D-  1             ***   
       QRHFGUESS            IQGUES         OFF         [  0]    ***   
       QUARTIC              IQUART         OFF         [  0]    ***   
       RAMAN_INT            IRAMIN         OFF         [  0]    ***   
       RAMAN_ORB            IRAMRE         UNRELAXED   [  0]    ***   
       RDO                  IRDOFM         OFF         [  0]    ***   
       REDUCE_REPR          REDREP         Ir          [  0]    ***   
       REFERENCE            IREFNC         RHF         [  0]    ***   
       RELATIVIST           IRELAT         OFF         [  0]    ***   
       RELAX_DENS           IRDENS         OFF         [  0]    ***   
       RESET_FLAGS          IRESET         OFF         [  0]    ***   
       RESTART_CC           ICCRES         OFF         [  0]    ***   
       ROT_EVEC             ROTVEC              0               ***   
       SAVE_INTS            ISVINT         OFF         [  0]    ***   
       SCALE_ON             ISTCRT              0               ***   
       SCF_CONV             ISCFCV          10D-  9             ***   
       SCF_DAMPING          IDAMP               0             x 10-3  
       SCF_EXPORDE          IRPPOR              6               ***   
       SCF_EXPSTAR          IRPPLS              8               ***   
       SCF_EXTRAPO          IRPP           ON          [  1]    ***   
       SCF_MAXCYC           ISCFCY            150              cycles 
       SCF_NOSTOP           ISCFST         OFF         [  0]    ***   
       SCF_PRINT            ISCFPR              0               ***   
       SCF_PROG             ISCFPR         SCF         [  0]    ***   
       SD_FIELD             IFINSD              0             x 10-6  
       SOPERT               IPERSO         OFF         [  0]    ***   
       SPHERICAL            IDFGHI         ON          [  1]    ***   
       SPINORBIT            ISOCAL         OFF         [  0]    ***   
       SPINROTATIO          ISRCON         OFF         [  0]    ***   
       SPIN_FLIP            ISPFLP         OFF         [  0]    ***   
       SPIN_ORBIT           ISPORB         OFF         [  0]    ***   
       SPIN_SCAL            ISCSMP         OFF         [  0]    ***   
       STEEPSCALE           ISTPSC              1000          x 10-3  
       SUBGROUP             ISUBGP         DEFAULT     [  0]    ***   
       SUBGRPAXIS           ISBXYZ         X           [  0]    ***   
       SYMMETRY             ISYM           ON          [  0]    ***   
       SYM_CHECK            ISYMCK         OVERRIDE    [  1]    ***   
       T3_EXTRAPOL          IT3EXT         OFF         [  0]    ***   
       T4_EXTRAPOL          IT4EXP         OFF         [  0]    ***   
       TAMP_SUM             IEVERY              5               ***   
       TESTSUITE            ITESTS         OFF         [  0]    ***   
       THERMOCH             ITHERM         OFF         [  0]    ***   
       TOL_CHOLESK          ITOLCH          10D-  4             ***   
       TRANGRAD             IRESRM         OFF         [  0]    ***   
       TRANS_INV            ITRAIN         USE         [  0]    ***   
       TREAT_PERT           ITREAT         SIMULTANEOUS[  0]    ***   
       TRIP_ALGORI          ITRALG         NORMAL      [  0]    ***   
       UIJ_THRESHO          IUIJTH              1               ***   
       UNITS                IUNITS         BOHR        [  1]    ***   
       UNOS                 IUNOS          OFF         [  0]    ***   
       UPDATE_HESS          IHUPDT         ON          [  1]    ***   
       VIBPHASE             ISETPH         STANDARD    [  0]    ***   
       VIBRATION            IVIB           NO          [  0]    ***   
       VIB_ALGORIT          IGEALG         STANDARD    [  0]    ***   
       VNATORB              IVNORB         OFF         [  0]    ***   
       VTRAN                IVTRAN         FULL/PARTIAL[  0]    ***   
       XFIELD               IXEFLD              0             x 10-6  
       XFORM_TOL            IXFTOL          10D- 11             ***   
       YFIELD               IYEFLD              0             x 10-6  
       ZFIELD               IZEFLD              0             x 10-6  
       ZSCALE_EXP           IZEXPS         OFF         [  0]    ***   
    -------------------------------------------------------------------
  @GETXYZ-I,     3 atoms read from ZMAT.
   Rotational constants (in cm-1): 
          8.6862687733            12.5047803640            28.4456078272
   Rotational constants (in MHz): 
     260407.8231211723        374883.9367262434        852777.9884523598
********************************************************************************
   The full molecular point group is C s .
   The largest Abelian subgroup of the full molecular point group is C s .
   The computational point group is C s .
********************************************************************************


 ----------------------------------------------------------------
         Coordinates used in calculation (QCOMP) 
 ----------------------------------------------------------------
 Z-matrix   Atomic            Coordinates (in bohr)
  Symbol    Number           X              Y              Z
 ----------------------------------------------------------------
     H         1        -1.57108937    -0.94725511     0.00000000
     O         8         0.00326331     0.12166731     0.00000000
     H         1         1.51929833    -0.98369338     0.00000000
 ----------------------------------------------------------------
 
   Interatomic distance matrix (Angstroms) 
 
                 H             O             H    
                [ 1]        [ 2]        [ 3]
  H    [ 1]     0.00000
  O    [ 2]     1.00699     0.00000
  H    [ 3]     1.63548     0.99285     0.00000
 rotcon2
   Rotational constants (in cm-1): 
         28.4456078272            12.5047803640             8.6862687733
   Rotational constants (in MHz): 
     852777.9884523603        374883.9367262436        260407.8231211724
  There is   1 frozen-core orbital.
  There are   92 basis functions.
 @GEOPT-W, Archive file not created for single-point calculation.
 @CHECKOUT-I, Total execution time (CPU/WALL):        0.11/       0.16 seconds.
--executable xjoda finished with status     0 in        0.18 seconds (walltime).
 --invoking executable--
/home/qc/cfour_v2.1_intel_2017_eland2/bin/xvmol
 SERIAL VERSION OF MOLECULE STARTED
********************************************************************************
                    INPUT FROM MOL FILE
********************************************************************************
INTGRL        1    0    1    0    0    0    0    0    0                         
         *** CFOUR Program System (Release V0.1) ***                            
h2o AUG-PVTZ CC3                                                                
    3    1 Z          0.10E-08              0    0                              
   9999.00      3.00                                                            
          1.00000000    1    3    1    1    1                                   
H #1  -1.571089368322549  -0.947255113367173   0.000000000000000                
    6    4                                                                      
   33.8700000000000       6.068000000000000E-003  0.000000000000000E+000        
  0.000000000000000E+000  0.000000000000000E+000                                
   5.09500000000000       4.530800000000000E-002  0.000000000000000E+000        
  0.000000000000000E+000  0.000000000000000E+000                                
   1.15900000000000       0.202822000000000       0.000000000000000E+000        
  0.000000000000000E+000  0.000000000000000E+000                                
  0.325800000000000       0.503903000000000        1.00000000000000             
  0.000000000000000E+000  0.000000000000000E+000                                
  0.102700000000000       0.383421000000000       0.000000000000000E+000        
   1.00000000000000       0.000000000000000E+000                                
  2.526000000000000E-002  0.000000000000000E+000  0.000000000000000E+000        
  0.000000000000000E+000   1.00000000000000                                     
    3    3                                                                      
   1.40700000000000        1.00000000000000       0.000000000000000E+000        
  0.000000000000000E+000                                                        
  0.388000000000000       0.000000000000000E+000   1.00000000000000             
  0.000000000000000E+000                                                        
  0.102000000000000       0.000000000000000E+000  0.000000000000000E+000        
   1.00000000000000                                                             
    2    2                                                                      
   1.05700000000000        1.00000000000000       0.000000000000000E+000        
  0.247000000000000       0.000000000000000E+000   1.00000000000000             
          8.00000000    1    4    1    1    1    1                              
O #2   0.003263306157621   0.121667309877661   0.000000000000000                
   11    5                                                                      
   15330.0000000000       5.080000000000000E-004 -1.150000000000000E-004        
  0.000000000000000E+000  0.000000000000000E+000  0.000000000000000E+000        
   2299.00000000000       3.929000000000000E-003 -8.950000000000000E-004        
  0.000000000000000E+000  0.000000000000000E+000  0.000000000000000E+000        
   522.400000000000       2.024300000000000E-002 -4.636000000000000E-003        
  0.000000000000000E+000  0.000000000000000E+000  0.000000000000000E+000        
   147.300000000000       7.918100000000000E-002 -1.872400000000000E-002        
  0.000000000000000E+000  0.000000000000000E+000  0.000000000000000E+000        
   47.5500000000000       0.230687000000000      -5.846300000000000E-002        
  0.000000000000000E+000  0.000000000000000E+000  0.000000000000000E+000        
   16.7600000000000       0.433118000000000      -0.136463000000000             
  0.000000000000000E+000  0.000000000000000E+000  0.000000000000000E+000        
   6.20700000000000       0.350260000000000      -0.175740000000000             
  0.000000000000000E+000  0.000000000000000E+000  0.000000000000000E+000        
   1.75200000000000       4.272800000000000E-002  0.160934000000000             
   1.00000000000000       0.000000000000000E+000  0.000000000000000E+000        
  0.688200000000000      -8.154000000000000E-003  0.603418000000000             
  0.000000000000000E+000  0.000000000000000E+000  0.000000000000000E+000        
  0.238400000000000       2.381000000000000E-003  0.378765000000000             
  0.000000000000000E+000   1.00000000000000       0.000000000000000E+000        
  7.376000000000001E-002  0.000000000000000E+000  0.000000000000000E+000        
  0.000000000000000E+000  0.000000000000000E+000   1.00000000000000             
    6    4                                                                      
   34.4600000000000       1.592800000000000E-002  0.000000000000000E+000        
  0.000000000000000E+000  0.000000000000000E+000                                
   7.74900000000000       9.974000000000000E-002  0.000000000000000E+000        
  0.000000000000000E+000  0.000000000000000E+000                                
   2.28000000000000       0.310492000000000       0.000000000000000E+000        
  0.000000000000000E+000  0.000000000000000E+000                                
  0.715600000000000       0.491026000000000        1.00000000000000             
  0.000000000000000E+000  0.000000000000000E+000                                
  0.214000000000000       0.336337000000000       0.000000000000000E+000        
   1.00000000000000       0.000000000000000E+000                                
  5.974000000000000E-002  0.000000000000000E+000  0.000000000000000E+000        
  0.000000000000000E+000   1.00000000000000                                     
    3    3                                                                      
   2.31400000000000        1.00000000000000       0.000000000000000E+000        
  0.000000000000000E+000                                                        
  0.645000000000000       0.000000000000000E+000   1.00000000000000             
  0.000000000000000E+000                                                        
  0.214000000000000       0.000000000000000E+000  0.000000000000000E+000        
   1.00000000000000                                                             
    2    2                                                                      
   1.42800000000000        1.00000000000000       0.000000000000000E+000        
  0.500000000000000       0.000000000000000E+000   1.00000000000000             
          1.00000000    1    3    1    1    1                                   
H #3   1.519298331594924  -0.983693381829655   0.000000000000000                
    6    4                                                                      
   33.8700000000000       6.068000000000000E-003  0.000000000000000E+000        
  0.000000000000000E+000  0.000000000000000E+000                                
   5.09500000000000       4.530800000000000E-002  0.000000000000000E+000        
  0.000000000000000E+000  0.000000000000000E+000                                
   1.15900000000000       0.202822000000000       0.000000000000000E+000        
  0.000000000000000E+000  0.000000000000000E+000                                
  0.325800000000000       0.503903000000000        1.00000000000000             
  0.000000000000000E+000  0.000000000000000E+000                                
  0.102700000000000       0.383421000000000       0.000000000000000E+000        
   1.00000000000000       0.000000000000000E+000                                
  2.526000000000000E-002  0.000000000000000E+000  0.000000000000000E+000        
  0.000000000000000E+000   1.00000000000000                                     
    3    3                                                                      
   1.40700000000000        1.00000000000000       0.000000000000000E+000        
  0.000000000000000E+000                                                        
  0.388000000000000       0.000000000000000E+000   1.00000000000000             
  0.000000000000000E+000                                                        
  0.102000000000000       0.000000000000000E+000  0.000000000000000E+000        
   1.00000000000000                                                             
    2    2                                                                      
   1.05700000000000        1.00000000000000       0.000000000000000E+000        
  0.247000000000000       0.000000000000000E+000   1.00000000000000             
FINISH                                                                          
 
********************************************************************************
 ONE- AND TWO-ELECTRON INTEGRALS OVER SYMMETRY-ADAPTED AOS ARE CALCULATED.

  SPHERICAL HARMONICS ARE USED.
  
  INTEGRALS LESS THAN  0.10E-13 ARE NEGLECTED.

  NUCLEAR REPULSION ENERGY :    8.7914847684 A.U.
  @MOLECU-I, ONE ELECTRON INTEGRALS (CPU/WALL):        0.02/       0.02 SECONDS.
  @TWOEL-I,    1908019 INTEGRALS OF SYMMETRY TYPE  I I I I
  @TWOEL-I,    1629646 INTEGRALS OF SYMMETRY TYPE  I J I J
  @TWOEL-I,     852741 INTEGRALS OF SYMMETRY TYPE  I I J J
  @TWOEL-I, TOTAL NUMBER OF 2-E INTEGRALS    4390406.
  @MOLECU-I, TWO ELECTRON INTEGRALS (CPU/WALL):        1.27/       1.27 SECONDS.
 @CHECKOUT-I, Total execution time (CPU/WALL):        1.29/       1.29 seconds.

OMP_NUM_THREADS not specified; defaulting to 1
Running with 1 threads/proc

--executable xvmol finished with status     0 in        1.31 seconds (walltime).
 --invoking executable--
/home/qc/cfour_v2.1_intel_2017_eland2/bin/xvmol2ja
 @GETMEM-I,  Allocated   30517 MB of main memory.
 @CHECKOUT-I, Total execution time (CPU/WALL):        0.01/       0.01 seconds.
--executable xvmol2ja finished with status     0 in        0.03 seconds (walltime).
 --invoking executable--
/home/qc/cfour_v2.1_intel_2017_eland2/bin/xvscf
  There are   92 functions in the AO basis.

  There are 2 irreducible representations.

       Irrep        # of functions
         1                 62
         2                 30


  Parameters for SCF calculation: 
        SCF reference function:  RHF  
  Maximum number of iterations:  150
     Full symmetry point group: C s 
     Computational point group: C s 
        Initial density matrix: MOREAD                 
     SCF convergence tolerance: 10**(- 9)
  DIIS convergence acceleration:  ON
          Latest start for DIIS:   8
                     DIIS order:   6

  Memory information:     429020 words required.
  Fock matrices are constructed from AO integral file.
 @GETMEM-I,  Allocated       3 MB of main memory.
  Initialization and symmetry analysis required      0.001 seconds.

  @INITGES-I, Occupancies from core Hamiltonian:

          Alpha population by irrep:   4    1
           Beta population by irrep:   4    1


 total no. of electrons in initial guess :  0.000000000000000E+000
  --------------------------------------------------------------------
  Iteration         Total Energy            Largest Density Difference
  --------------------------------------------------------------------
       0             8.791484768410099              0.0000000000D+00
   current occupation vector 
     4  1
     4  1
       1           -61.241183150026117              0.1230511989D+02
   current occupation vector 
     4  1
     4  1
       2           -63.679584905263695              0.3137387180D+02
   current occupation vector 
     5  0
     5  0
       3           -70.778166443462979              0.3137404652D+02
   current occupation vector 
     4  1
     4  1
       4           -67.767360957774088              0.2649612947D+02
   current occupation vector 
     5  0
     5  0
       5           -72.137575048040446              0.2649570869D+02
   current occupation vector 
     4  1
     4  1
       6           -68.735383341109397              0.2485575385D+02
   current occupation vector 
     5  0
     5  0
       7           -72.507811378453681              0.2485589495D+02
   current occupation vector 
     4  1
     4  1
       8           -69.001821925308619              0.2443135091D+02
   current occupation vector 
     5  0
     5  0
       9           -75.759342039602387              0.2443210999D+02
   current occupation vector 
     4  1
     4  1
      10           -76.043072954262215              0.5315612461D+00
   current occupation vector 
     4  1
     4  1
      11           -76.053582844643827              0.9075029488D-01
   current occupation vector 
     4  1
     4  1
      12           -76.053712936086129              0.1192821684D-01
   current occupation vector 
     4  1
     4  1
      13           -76.053725315493168              0.3971582260D-02
   current occupation vector 
     4  1
     4  1
      14           -76.053727322262262              0.2344826646D-02
   current occupation vector 
     4  1
     4  1
      15           -76.053727360374808              0.3468820148D-03
   current occupation vector 
     4  1
     4  1
      16           -76.053727361092498              0.3394132869D-04
   current occupation vector 
     4  1
     4  1
      17           -76.053727361175973              0.1728861638D-04
   current occupation vector 
     4  1
     4  1
      18           -76.053727361178815              0.3214525533D-05
   current occupation vector 
     4  1
     4  1
      19           -76.053727361179057              0.3249133078D-06
   current occupation vector 
     4  1
     4  1
      20           -76.053727361178431              0.6723750978D-07
   current occupation vector 
     4  1
     4  1
      21           -76.053727361178360              0.1392885474D-07
   current occupation vector 
     4  1
     4  1
      22           -76.053727361178076              0.3786044991D-08
   current occupation vector 
     4  1
     4  1
      23           -76.053727361178233              0.1215882062D-08
   current occupation vector 
     4  1
     4  1

  SCF has converged.

 Density matrix saved to file den.dat
 total electron number:   10.0000000000001     
     E(SCF)=       -76.053727361178289              0.2996309312D-09

  Eigenvector printing suppressed.

 @PUTMOS-I, Writing converged MOs to NEWMOS. 
 @PUTMOS-I, Symmetry   1 Full Blocks 15 Partial Blocksize   2
 @PUTMOS-I, Symmetry   2 Full Blocks  7 Partial Blocksize   2
 @PUTFOCK-I, Writing converged Fock matrix to NEWFOCK. 
 @PUTFOCK-I, Symmetry   1 Full Blocks 15 Partial Blocksize   2
 @PUTFOCK-I, Symmetry   2 Full Blocks  7 Partial Blocksize   2


 
  ORBITAL EIGENVALUES (ALPHA)  (1H = 27.2113834 eV)

       MO #        E(hartree)               E(eV)           FULLSYM    COMPSYM
       ----   --------------------   --------------------   -------   ---------
    1     1         -20.5719310235        -559.7907023575     A'        A'  (1)
    2     2          -1.3293277862         -36.1728480544     A'        A'  (1)
    3     3          -0.7040318006         -19.1576792527     A'        A'  (1)
    4     4          -0.5668439391         -15.4246077556     A'        A'  (1)
    5    63          -0.5053325053         -13.7507965467     A''       A'' (2)
  +++++++++++++++++++++++++++++++++++++++++++++++++++++++++++++++++++++++++++++
    6     5           0.0291592768           0.7934642601     A'        A'  (1)
    7     6           0.0471698656           1.2835572979     A'        A'  (1)
    8     7           0.1363903133           3.7113691074     A'        A'  (1)
    9    64           0.1598225439           4.3489925188     A''       A'' (2)
   10     8           0.1720770902           4.6824556761     A'        A'  (1)
   11     9           0.1816330857           4.9424875340     A'        A'  (1)
   12    10           0.2254865383           6.1358006445     A'        A'  (1)
   13    11           0.2424567957           6.5975848245     A'        A'  (1)
   14    65           0.2629379701           7.1549059146     A''       A'' (2)
   15    66           0.3041813472           8.2771952623     A''       A'' (2)
   16    12           0.3125442242           8.5047607137     A'        A'  (1)
   17    13           0.3639813950           9.9044372904     A'        A'  (1)
   18    14           0.4282165323          11.6523642377     A'        A'  (1)
   19    15           0.4588832858          12.4868490267     A'        A'  (1)
   20    16           0.6008165710          16.3490500662     A'        A'  (1)
   21    17           0.6484318736          17.6447283203     A'        A'  (1)
   22    18           0.7111078844          19.3502292821     A'        A'  (1)
   23    67           0.7192756626          19.5724858262     A''       A'' (2)
   24    68           0.7322035028          19.9242702418     A''       A'' (2)
   25    19           0.8125825429          22.1114951179     A'        A'  (1)
   26    69           0.8389962598          22.8302488970     A''       A'' (2)
   27    20           0.8986951583          24.4547385117     A'        A'  (1)
   28    21           0.9032109398          24.5776191728     A'        A'  (1)
   29    70           0.9142792494          24.8788031914     A''       A'' (2)
   30    22           0.9261442109          25.2016652067     A'        A'  (1)
   31    71           0.9313695887          25.3438549665     A''       A'' (2)
   32    23           0.9698915842          26.3920917542     A'        A'  (1)
   33    24           1.0085397119          27.4437607739     A'        A'  (1)
   34    25           1.0320759733          28.0842150073     A'        A'  (1)
   35    72           1.0785309652          29.3483196038     A''       A'' (2)
   36    26           1.1058711024          30.0922825572     A'        A'  (1)
   37    27           1.1590945683          31.5405666936     A'        A'  (1)
   38    73           1.1597647022          31.5588019646     A''       A'' (2)
   39    28           1.2754851338          34.7077149967     A'        A'  (1)
   40    74           1.5024631156          40.8840998829     A''       A'' (2)
   41    75           1.5738795020          42.8274385533     A''       A'' (2)
   42    29           1.5829384760          43.0739457685     A'        A'  (1)
   43    30           1.7358325827          47.2344059272     A'        A'  (1)
   44    31           1.8151890491          49.3938051573     A'        A'  (1)
   45    32           1.9536314691          53.1610149271     A'        A'  (1)
   46    33           2.0720263453          56.3827032961     A'        A'  (1)
   47    76           2.2529645746          61.3062828271     A''       A'' (2)
   48    77           2.3084227494          62.8153764838     A''       A'' (2)
   49    34           2.3236967686          63.2310036761     A'        A'  (1)
   50    35           2.3976962080          65.2446307929     A'        A'  (1)
   51    78           2.4002556049          65.3142755234     A''       A'' (2)
   52    36           2.4380649879          66.3431211406     A'        A'  (1)
   53    37           2.4920465201          67.8120333103     A'        A'  (1)
   54    79           2.7147166829          73.8711964820     A''       A'' (2)
   55    38           2.7165041070          73.9198347627     A'        A'  (1)
   56    39           2.7214608648          74.0547150005     A'        A'  (1)
   57    80           2.8575601874          77.7581658466     A''       A'' (2)
   58    40           2.8628941062          77.9033091563     A'        A'  (1)
   59    41           3.5626789066          96.9454216579     A'        A'  (1)
   60    42           3.7112194975         100.9874166271     A'        A'  (1)
   61    81           3.9743150487         108.1466105413     A''       A'' (2)
   62    82           4.0429857312         110.0152348135     A''       A'' (2)
   63    43           4.1640292227         113.3089956688     A'        A'  (1)
   64    44           4.1775174909         113.6760301046     A'        A'  (1)
   65    83           4.3008706765         117.0326409334     A''       A'' (2)
   66    84           4.3653539850         118.7873209639     A''       A'' (2)
   67    85           4.3715266756         118.9552884117     A''       A'' (2)
   68    45           4.4515565376         121.1330116706     A'        A'  (1)
   69    46           4.4655286388         121.5132118730     A'        A'  (1)
   70    47           4.6325371730         126.0577451294     A'        A'  (1)
   71    48           4.6879506885         127.5656235460     A'        A'  (1)
   72    49           5.0054461813         136.2051151283     A'        A'  (1)
   73    86           5.0645894513         137.8144853225     A''       A'' (2)
   74    50           5.1666283212         140.5911041347     A'        A'  (1)
   75    51           5.2513205743         142.8956975022     A'        A'  (1)
   76    87           5.3759598990         146.2873059538     A''       A'' (2)
   77    52           5.6490954493         153.7197021341     A'        A'  (1)
   78    53           6.0523961282         164.6940715344     A'        A'  (1)
   79    54           6.5578824642         178.4490540245     A'        A'  (1)
   80    88           6.6934021096         182.1367310535     A''       A'' (2)
   81    55           6.7855110732         184.6431433782     A'        A'  (1)
   82    89           7.0976848675         193.1378241818     A''       A'' (2)
   83    90           7.1947607405         195.7793929803     A''       A'' (2)
   84    91           7.2204422873         196.4782233986     A''       A'' (2)
   85    56           7.2733603701         197.9181976362     A'        A'  (1)
   86    57           7.3084748775         198.8737119615     A'        A'  (1)
   87    92           7.3651624204         200.4162584243     A''       A'' (2)
   88    58           7.4369423990         202.3694909420     A'        A'  (1)
   89    59           7.7656800193         211.3148963681     A'        A'  (1)
   90    60           7.8914783138         214.7380419884     A'        A'  (1)
   91    61           8.5453589503         232.5310386885     A'        A'  (1)
   92    62          14.6380327986         398.3211227048     A'        A'  (1)


  VSCF finished.

 @CHECKOUT-I, Total execution time (CPU/WALL):        3.44/       1.75 seconds.
--executable xvscf finished with status     0 in        1.77 seconds (walltime).
 --invoking executable--
/home/qc/cfour_v2.1_intel_2017_eland2/bin/xvtran
 @GETMEM-I,  Allocated   30517 MB of main memory.
  Full RHF integral transformation
  The following   1 MOs will be dropped:
    1
  There are  91 active molecular orbitals.
  Transformation of IIII integrals :
  1 pass through the AO integral file was required.
     1908019 AO integrals were read.
     1897231 MO integrals were written to HF2.
  Transformation of IIJJ integrals :
  1 pass through the AO integral file was required.
      852741 AO integrals were read.
      879315 MO integrals were written to HF2.
  Transformation of IJIJ integrals :
  1 pass through the AO integral file was required.
     1629646 AO integrals were read.
     1675365 MO integrals were written to HF2.
  Summary of active molecular orbitals: 
------------------------------------------------------------------------
 
  Index      Eigenvalue    Symmetry    Index      Eigenvalue    Symmetry
------------------------------------------------------------------------
     1        -1.3293278        1        47         4.6325372        1
     2        -0.7040318        1        48         4.6879507        1
     3        -0.5668439        1        49         5.0054462        1
     4        -0.5053325        2        50         5.1666283        1
     5         0.0291593        1        51         5.2513206        1
     6         0.0471699        1        52         5.6490954        1
     7         0.1363903        1        53         6.0523961        1
     8         0.1720771        1        54         6.5578825        1
     9         0.1816331        1        55         6.7855111        1
    10         0.2254865        1        56         7.2733604        1
    11         0.2424568        1        57         7.3084749        1
    12         0.3125442        1        58         7.4369424        1
    13         0.3639814        1        59         7.7656800        1
    14         0.4282165        1        60         7.8914783        1
    15         0.4588833        1        61         8.5453590        1
    16         0.6008166        1        62        14.6380328        1
    17         0.6484319        1        63         0.1598225        2
    18         0.7111079        1        64         0.2629380        2
    19         0.8125825        1        65         0.3041813        2
    20         0.8986952        1        66         0.7192757        2
    21         0.9032109        1        67         0.7322035        2
    22         0.9261442        1        68         0.8389963        2
    23         0.9698916        1        69         0.9142792        2
    24         1.0085397        1        70         0.9313696        2
    25         1.0320760        1        71         1.0785310        2
    26         1.1058711        1        72         1.1597647        2
    27         1.1590946        1        73         1.5024631        2
    28         1.2754851        1        74         1.5738795        2
    29         1.5829385        1        75         2.2529646        2
    30         1.7358326        1        76         2.3084227        2
    31         1.8151890        1        77         2.4002556        2
    32         1.9536315        1        78         2.7147167        2
    33         2.0720263        1        79         2.8575602        2
    34         2.3236968        1        80         3.9743150        2
    35         2.3976962        1        81         4.0429857        2
    36         2.4380650        1        82         4.3008707        2
    37         2.4920465        1        83         4.3653540        2
    38         2.7165041        1        84         4.3715267        2
    39         2.7214609        1        85         5.0645895        2
    40         2.8628941        1        86         5.3759599        2
    41         3.5626789        1        87         6.6934021        2
    42         3.7112195        1        88         7.0976849        2
    43         4.1640292        1        89         7.1947607        2
    44         4.1775175        1        90         7.2204423        2
    45         4.4515565        1        91         7.3651624        2
    46         4.4655286        1
------------------------------------------------------------------------
  -1.32932778619351      -0.704031800627106      -0.566843939128911     
 -0.505332505319181       2.915927677822011E-002  4.716986560612324E-002
  0.136390313307147       0.172077090210536       0.181633085732961     
  0.225486538274112       0.242456795654438       0.312544224184231     
  0.363981395022109       0.428216532263874       0.458883285835940     
  0.600816570985587       0.648431873562405       0.711107884434104     
  0.812582542858617       0.898695158280629       0.903210939758330     
  0.926144210907090       0.969891584202377        1.00853971187231     
   1.03207597329631        1.10587110235706        1.15909456825206     
   1.27548513379540        1.58293847598130        1.73583258274026     
   1.81518904905407        1.95363146906679        2.07202634527162     
   2.32369676861325        2.39769620801092        2.43806498792873     
   2.49204652014397        2.71650410697880        2.72146086481335     
   2.86289410615842        3.56267890657519        3.71121949746524     
   4.16402922274116        4.17751749088381        4.45155653757158     
   4.46552863876051        4.63253717300481        4.68795068853299     
   5.00544618133301        5.16662832124468        5.25132057425046     
   5.64909544929923        6.05239612824816        6.55788246416316     
   6.78551107321424        7.27336037006337        7.30847487752045     
   7.43694239896633        7.76568001934320        7.89147831375741     
   8.54535895034538        14.6380327986102       0.159822543927301     
  0.262937970091514       0.304181347218533       0.719275662634469     
  0.732203502810716       0.838996259815329       0.914279249449320     
  0.931369588745559        1.07853096523510        1.15976470217098     
   1.50246311559662        1.57387950196125        2.25296457463930     
   2.30842274942171        2.40025560491864        2.71471668294554     
   2.85756018735120        3.97431504865305        4.04298573123894     
   4.30087067654868        4.36535398504933        4.37152667555097     
   5.06458945128419        5.37595989896638        6.69340210955770     
   7.09768486749715        7.19476074047483        7.22044228734859     
   7.36516242038272     
 @CHECKOUT-I, Total execution time (CPU/WALL):        2.96/       1.98 seconds.
--executable xvtran finished with status     0 in        2.00 seconds (walltime).
 --invoking executable--
/home/qc/cfour_v2.1_intel_2017_eland2/bin/xintprc
 @GETMEM-I,  Allocated   30517 MB of main memory.
  @GMOIAA-I, Processing MO integrals for spin case AA.
  @GMOIAA-I, Generation of integral list completed.
                      TYPE                NUMBER
                      ----               --------
                      PPPP               3719134
                      PPPH                679528
                      PPHH                 31291
                      PHPH                 20068
                      PHHH                  1856
                      HHHH                    34

                     TOTAL               4451911

  @FORMT2-I, Second-order MP correlation energies:
            ------------------------------------------------
            E(SCF)                  =    -76.053727361178 a.u.
            E2(AA)                  =     -0.032918183345 a.u.
            E2(AB)                  =     -0.205609342669 a.u.
            E2(TOT)                 =     -0.271445709360 a.u.
            Total MP2 energy        =    -76.325173070538 a.u.
            ------------------------------------------------
   Largest T2 amplitudes for spin case AB:
       _       _                 _       _                 _       _
   i   j   a   b             i   j   a   b             i   j   a   b
-----------------------------------------------------------------------------
[  2   2  15  15]-0.02123 [  3   3  20  20]-0.01920 [  4   4  71  71]-0.01611
[  4   4  70  70]-0.01476 [  2   3  15  20]-0.01391 [  3   2  20  15]-0.01391
[  2   2  15  25]-0.01353 [  2   2  25  15]-0.01353 [  4   4  71  70]-0.01338
[  4   4  70  71]-0.01338 [  2   2  15   9]-0.01301 [  2   2   9  15]-0.01301
[  4   3  70  20]-0.01298 [  3   4  20  70]-0.01298 [  2   2  16  16]-0.01269
-----------------------------------------------------------------------------
   Norm of T2AB vector (    62234 symmetry allowed elements):  0.2222825234.
-----------------------------------------------------------------------------
 @CHECKOUT-I, Total execution time (CPU/WALL):        0.83/       0.65 seconds.
--executable xintprc finished with status     0 in        0.67 seconds (walltime).
  calling xvcc 
 --invoking executable--
/home/qc/cfour_v2.1_intel_2017_eland2/bin/xvcc
 @GETMEM-I,  Allocated   30517 MB of main memory.
   CC3 energy will be calculated.
   The total correlation energy is -0.271445709360 a.u.
   The total correlation energy is -0.279119806842 a.u.
  Convergence information after     1 iterations: 
  Largest element of residual vector : -0.10259464E-01.
  Largest element of DIIS residual   : -0.10259464E-01.
   The total correlation energy is -0.283908606411 a.u.
  Convergence information after     2 iterations: 
  Largest element of residual vector : -0.15963857E-02.
  Largest element of DIIS residual   : -0.17842541E-02.
   The total correlation energy is -0.284818136212 a.u.
  Convergence information after     3 iterations: 
  Largest element of residual vector : -0.18352050E-02.
  Largest element of DIIS residual   : -0.11479824E-02.
   The total correlation energy is -0.285313166385 a.u.
  Convergence information after     4 iterations: 
  Largest element of residual vector : -0.25772448E-03.
  Largest element of DIIS residual   : -0.13853354E-03.
   The total correlation energy is -0.285349930397 a.u.
  Convergence information after     5 iterations: 
  Largest element of residual vector : -0.14730435E-03.
  Largest element of DIIS residual   :  0.73294415E-04.
   The total correlation energy is -0.285353414254 a.u.
  Convergence information after     6 iterations: 
  Largest element of residual vector :  0.35804826E-04.
  Largest element of DIIS residual   :  0.25686560E-04.
   The total correlation energy is -0.285352698634 a.u.
  Convergence information after     7 iterations: 
  Largest element of residual vector :  0.18663823E-04.
  Largest element of DIIS residual   :  0.10691638E-04.
   The total correlation energy is -0.285352630178 a.u.
  Convergence information after     8 iterations: 
  Largest element of residual vector :  0.52557531E-05.
  Largest element of DIIS residual   :  0.28966316E-05.
   The total correlation energy is -0.285352875913 a.u.
  Convergence information after     9 iterations: 
  Largest element of residual vector :  0.19012262E-05.
  Largest element of DIIS residual   :  0.14549513E-05.
   The total correlation energy is -0.285352902808 a.u.
  Convergence information after    10 iterations: 
  Largest element of residual vector :  0.61599902E-06.
  Largest element of DIIS residual   :  0.37876524E-06.
   The total correlation energy is -0.285352917090 a.u.
  Convergence information after    11 iterations: 
  Largest element of residual vector :  0.21170122E-06.
  Largest element of DIIS residual   :  0.93690520E-07.
   The total correlation energy is -0.285352919928 a.u.
  Convergence information after    12 iterations: 
  Largest element of residual vector :  0.60388160E-07.
  Largest element of DIIS residual   :  0.27575712E-07.
   The total correlation energy is -0.285352920586 a.u.
  Convergence information after    13 iterations: 
  Largest element of residual vector :  0.11435467E-07.
  Largest element of DIIS residual   :  0.88532166E-08.
   The total correlation energy is -0.285352921025 a.u.
  Convergence information after    14 iterations: 
  Largest element of residual vector :  0.76023017E-08.
  Largest element of DIIS residual   :  0.38630255E-08.
   The total correlation energy is -0.285352921284 a.u.
  Convergence information after    15 iterations: 
  Largest element of residual vector :  0.24369860E-08.
  Largest element of DIIS residual   :  0.14501016E-08.
   The total correlation energy is -0.285352921338 a.u.
  Convergence information after    16 iterations: 
  Largest element of residual vector :  0.10540086E-08.
  Largest element of DIIS residual   :  0.33792068E-09.
   The total correlation energy is -0.285352921361 a.u.
  Convergence information after    17 iterations: 
  Largest element of residual vector :  0.29370312E-09.
  Largest element of DIIS residual   :  0.11184708E-09.
  Amplitude equations converged in    17iterations.
   The total correlation energy is -0.285352921367 a.u.
   The CC iterations have converged.

   Largest T1 amplitudes for spin case AA:
   i       a                 i       a                 i       a    
-----------------------------------------------------------------------------
[  4      63    ]-0.01521 [  4      65    ]-0.01265 [  3       7    ] 0.00885
[  3      12    ] 0.00789 [  2      32    ]-0.00539 [  3       5    ] 0.00396
[  4      81    ]-0.00390 [  4      68    ] 0.00371 [  2      25    ]-0.00345
[  3      33    ]-0.00340 [  2      48    ]-0.00335 [  3      47    ]-0.00332
[  4      70    ] 0.00295 [  3      19    ] 0.00277 [  1      20    ]-0.00275
-----------------------------------------------------------------------------
   Norm of T1AA vector (      203 symmetry allowed elements):  0.0281658623.
-----------------------------------------------------------------------------
   Largest T2 amplitudes for spin case AB:
       _       _                 _       _                 _       _
   i   j   a   b             i   j   a   b             i   j   a   b
-----------------------------------------------------------------------------
[  2   2  15  15]-0.02446 [  3   3  20  20]-0.02100 [  4   4  71  71]-0.01707
[  4   4  70  70]-0.01581 [  2   2  25  15]-0.01564 [  2   2  15  25]-0.01564
[  2   2  16  16]-0.01503 [  2   2  15   9]-0.01467 [  2   2   9  15]-0.01467
[  4   4  63  63]-0.01465 [  4   4  71  70]-0.01461 [  4   4  70  71]-0.01461
[  3   3  16  16]-0.01425 [  3   2  20  15]-0.01396 [  2   3  15  20]-0.01396
-----------------------------------------------------------------------------
   Norm of T2AB vector (    62234 symmetry allowed elements):  0.2500784023.
-----------------------------------------------------------------------------
       Summary of iterative solution of CC equations 
      -----------------------------------------------------------
                       Correlation           Total
       Iteration         Energy              Energy
      -----------------------------------------------------------
            0        -0.271445709360     -76.325173070538  DIIS 
            1        -0.279119806842     -76.332847168020  DIIS 
            2        -0.283908606411     -76.337635967589  DIIS 
            3        -0.284818136212     -76.338545497390  DIIS 
            4        -0.285313166385     -76.339040527563  DIIS 
            5        -0.285349930397     -76.339077291575  DIIS 
            6        -0.285353414254     -76.339080775432  DIIS 
            7        -0.285352698634     -76.339080059812  DIIS 
            8        -0.285352630178     -76.339079991356  DIIS 
            9        -0.285352875913     -76.339080237091  DIIS 
           10        -0.285352902808     -76.339080263986  DIIS 
           11        -0.285352917090     -76.339080278269  DIIS 
           12        -0.285352919928     -76.339080281107  DIIS 
           13        -0.285352920586     -76.339080281764  DIIS 
           14        -0.285352921025     -76.339080282203  DIIS 
           15        -0.285352921284     -76.339080282462  DIIS 
           16        -0.285352921338     -76.339080282517  DIIS 
           17        -0.285352921367     -76.339080282546  DIIS 
      -----------------------------------------------------------
      A miracle has come to pass. The CC iterations have converged.
      The reference energy is       -76.05372736117829 a.u.
      The correlation energy is      -0.28535292136732 a.u.
      The total energy is           -76.33908028254561 a.u.
 @CHECKOUT-I, Total execution time (CPU/WALL):       54.92/      28.05 seconds.
--executable xvcc finished with status     0 in       28.07 seconds (walltime).
 --invoking executable--
/home/qc/cfour_v2.1_intel_2017_eland2/bin/xlambda
 @GETMEM-I,  Allocated   30517 MB of main memory.
 Hbar is calculated for a CCSD wave function.
 Calculation of Hbar completed.
 @CHECKOUT-I, Total execution time (CPU/WALL):        0.77/       0.41 seconds.
--executable xlambda finished with status     0 in        0.43 seconds (walltime).
 --invoking executable--
/home/qc/cfour_v2.1_intel_2017_eland2/bin/xvip
 @GETMEM-I,  Allocated   30517 MB of main memory.
 IPs are calculated using the EOMIP-CCSD method.
  Summary of active alpha molecular orbitals:
------------------------------------------------------------------------------
Orbital Symm. Eigenvalue  <xx>     <yy>     <zz>     <xy>     <xz>     <yz>
------------------------------------------------------------------------------
    1     1      -1.3293   0.000    0.000    0.000    0.000    0.000    0.000
    2     1      -0.7040   0.000    0.000    0.000    0.000    0.000    0.000
    3     1      -0.5668   0.000    0.000    0.000    0.000    0.000    0.000
    4     2      -0.5053   0.000    0.000    0.000    0.000    0.000    0.000
    5     1       0.0292   0.000    0.000    0.000    0.000    0.000    0.000
    6     1       0.0472   0.000    0.000    0.000    0.000    0.000    0.000
    7     1       0.1364   0.000    0.000    0.000    0.000    0.000    0.000
    8     1       0.1721   0.000    0.000    0.000    0.000    0.000    0.000
    9     1       0.1816   0.000    0.000    0.000    0.000    0.000    0.000
   10     1       0.2255   0.000    0.000    0.000    0.000    0.000    0.000
   11     1       0.2425   0.000    0.000    0.000    0.000    0.000    0.000
   12     1       0.3125   0.000    0.000    0.000    0.000    0.000    0.000
   13     1       0.3640   0.000    0.000    0.000    0.000    0.000    0.000
   14     1       0.4282   0.000    0.000    0.000    0.000    0.000    0.000
   15     1       0.4589   0.000    0.000    0.000    0.000    0.000    0.000
   16     1       0.6008   0.000    0.000    0.000    0.000    0.000    0.000
   17     1       0.6484   0.000    0.000    0.000    0.000    0.000    0.000
   18     1       0.7111   0.000    0.000    0.000    0.000    0.000    0.000
   19     1       0.8126   0.000    0.000    0.000    0.000    0.000    0.000
   20     1       0.8987   0.000    0.000    0.000    0.000    0.000    0.000
   21     1       0.9032   0.000    0.000    0.000    0.000    0.000    0.000
   22     1       0.9261   0.000    0.000    0.000    0.000    0.000    0.000
   23     1       0.9699   0.000    0.000    0.000    0.000    0.000    0.000
   24     1       1.0085   0.000    0.000    0.000    0.000    0.000    0.000
   25     1       1.0321   0.000    0.000    0.000    0.000    0.000    0.000
   26     1       1.1059   0.000    0.000    0.000    0.000    0.000    0.000
   27     1       1.1591   0.000    0.000    0.000    0.000    0.000    0.000
   28     1       1.2755   0.000    0.000    0.000    0.000    0.000    0.000
   29     1       1.5829   0.000    0.000    0.000    0.000    0.000    0.000
   30     1       1.7358   0.000    0.000    0.000    0.000    0.000    0.000
   31     1       1.8152   0.000    0.000    0.000    0.000    0.000    0.000
   32     1       1.9536   0.000    0.000    0.000    0.000    0.000    0.000
   33     1       2.0720   0.000    0.000    0.000    0.000    0.000    0.000
   34     1       2.3237   0.000    0.000    0.000    0.000    0.000    0.000
   35     1       2.3977   0.000    0.000    0.000    0.000    0.000    0.000
   36     1       2.4381   0.000    0.000    0.000    0.000    0.000    0.000
   37     1       2.4920   0.000    0.000    0.000    0.000    0.000    0.000
   38     1       2.7165   0.000    0.000    0.000    0.000    0.000    0.000
   39     1       2.7215   0.000    0.000    0.000    0.000    0.000    0.000
   40     1       2.8629   0.000    0.000    0.000    0.000    0.000    0.000
   41     1       3.5627   0.000    0.000    0.000    0.000    0.000    0.000
   42     1       3.7112   0.000    0.000    0.000    0.000    0.000    0.000
   43     1       4.1640   0.000    0.000    0.000    0.000    0.000    0.000
   44     1       4.1775   0.000    0.000    0.000    0.000    0.000    0.000
   45     1       4.4516   0.000    0.000    0.000    0.000    0.000    0.000
   46     1       4.4655   0.000    0.000    0.000    0.000    0.000    0.000
   47     1       4.6325   0.000    0.000    0.000    0.000    0.000    0.000
   48     1       4.6880   0.000    0.000    0.000    0.000    0.000    0.000
   49     1       5.0054   0.000    0.000    0.000    0.000    0.000    0.000
   50     1       5.1666   0.000    0.000    0.000    0.000    0.000    0.000
   51     1       5.2513   0.000    0.000    0.000    0.000    0.000    0.000
   52     1       5.6491   0.000    0.000    0.000    0.000    0.000    0.000
   53     1       6.0524   0.000    0.000    0.000    0.000    0.000    0.000
   54     1       6.5579   0.000    0.000    0.000    0.000    0.000    0.000
   55     1       6.7855   0.000    0.000    0.000    0.000    0.000    0.000
   56     1       7.2734   0.000    0.000    0.000    0.000    0.000    0.000
   57     1       7.3085   0.000    0.000    0.000    0.000    0.000    0.000
   58     1       7.4369   0.000    0.000    0.000    0.000    0.000    0.000
   59     1       7.7657   0.000    0.000    0.000    0.000    0.000    0.000
   60     1       7.8915   0.000    0.000    0.000    0.000    0.000    0.000
   61     1       8.5454   0.000    0.000    0.000    0.000    0.000    0.000
   62     1      14.6380   0.000    0.000    0.000    0.000    0.000    0.000
   63     2       0.1598   0.000    0.000    0.000    0.000    0.000    0.000
   64     2       0.2629   0.000    0.000    0.000    0.000    0.000    0.000
   65     2       0.3042   0.000    0.000    0.000    0.000    0.000    0.000
   66     2       0.7193   0.000    0.000    0.000    0.000    0.000    0.000
   67     2       0.7322   0.000    0.000    0.000    0.000    0.000    0.000
   68     2       0.8390   0.000    0.000    0.000    0.000    0.000    0.000
   69     2       0.9143   0.000    0.000    0.000    0.000    0.000    0.000
   70     2       0.9314   0.000    0.000    0.000    0.000    0.000    0.000
   71     2       1.0785   0.000    0.000    0.000    0.000    0.000    0.000
   72     2       1.1598   0.000    0.000    0.000    0.000    0.000    0.000
   73     2       1.5025   0.000    0.000    0.000    0.000    0.000    0.000
   74     2       1.5739   0.000    0.000    0.000    0.000    0.000    0.000
   75     2       2.2530   0.000    0.000    0.000    0.000    0.000    0.000
   76     2       2.3084   0.000    0.000    0.000    0.000    0.000    0.000
   77     2       2.4003   0.000    0.000    0.000    0.000    0.000    0.000
   78     2       2.7147   0.000    0.000    0.000    0.000    0.000    0.000
   79     2       2.8576   0.000    0.000    0.000    0.000    0.000    0.000
   80     2       3.9743   0.000    0.000    0.000    0.000    0.000    0.000
   81     2       4.0430   0.000    0.000    0.000    0.000    0.000    0.000
   82     2       4.3009   0.000    0.000    0.000    0.000    0.000    0.000
   83     2       4.3654   0.000    0.000    0.000    0.000    0.000    0.000
   84     2       4.3715   0.000    0.000    0.000    0.000    0.000    0.000
   85     2       5.0646   0.000    0.000    0.000    0.000    0.000    0.000
   86     2       5.3760   0.000    0.000    0.000    0.000    0.000    0.000
   87     2       6.6934   0.000    0.000    0.000    0.000    0.000    0.000
   88     2       7.0977   0.000    0.000    0.000    0.000    0.000    0.000
   89     2       7.1948   0.000    0.000    0.000    0.000    0.000    0.000
   90     2       7.2204   0.000    0.000    0.000    0.000    0.000    0.000
   91     2       7.3652   0.000    0.000    0.000    0.000    0.000    0.000
------------------------------------------------------------------------------
  nsizec is                    639
  @DOEOMIP2-I, right-hand eigenvectors will be computed.
  Beginning symmetry block   2.   1 roots requested.
  1   1  0.5848074919D+00  0.1591342088D+02  0.0000000000D+00  0.4600716133D+00
  2   2  0.5275151951D+00  0.1435441822D+02  0.9944924009D+00  0.8927297624D-01
  3   3  0.5068461041D+00  0.1379198366D+02  0.9968178645D+00  0.2154772771D-01
  4   4  0.5058584717D+00  0.1376510882D+02  0.9998689991D+00  0.4223510528D-02
  L-O-C-K-I-N-G O-N R-O-O-T 
  5   5  0.5057469186D+00  0.1376207331D+02  0.9999965374D+00  0.1024837928D-02
  6   6  0.5057410792D+00  0.1376191441D+02  0.9999997753D+00  0.1803147331D-03
  7   7  0.5057413126D+00  0.1376192076D+02  0.9999999909D+00  0.4868353714D-04
  8   8  0.5057408601D+00  0.1376190844D+02  0.9999999995D+00  0.8969989577D-05
  9   9  0.5057409172D+00  0.1376191000D+02  0.1000000000D+01  0.2164370163D-05
 10  10  0.5057409108D+00  0.1376190982D+02  0.1000000000D+01  0.4066628969D-06
 11  11  0.5057409127D+00  0.1376190988D+02  0.1000000000D+01  0.7605534948D-07
 12  12  0.5057409128D+00  0.1376190988D+02  0.1000000000D+01  0.1716858828D-07
 13  13  0.5057409128D+00  0.1376190988D+02  0.1000000000D+01  0.4497208181D-08
 14  14  0.5057409128D+00  0.1376190988D+02  0.1000000000D+01  0.6809699754D-09
 15  15  0.5057409128D+00  0.1376190988D+02  0.1000000000D+01  0.1454639088D-09
 16  16  0.5057409128D+00  0.1376190988D+02  0.1000000000D+01  0.2697044639D-10
  Converged eigenvalue:   0.505740912802331       a.u.
   Total EOMIP-CCSD electronic energy     -75.83333936974327 a.u.
          --------------------------------
             I    J    A       C(IJA)
          --------------------------------
              0    4    0   -0.6977332543
              4    4   63   -0.0371144863
              4    4   70    0.0314841168
              4    4   71    0.0276265973
              2    4   15    0.0273974847
              4    4   65   -0.0264240474
              3    4   20    0.0235869890
              3    4    7    0.0227711602
              2    4    9    0.0219320589
              3    4   12    0.0204349794
              4    4   68    0.0161862690
              1    4   14    0.0159096317
              2    4   25    0.0148666965
              1    4    8    0.0132122934
              3    4   14    0.0130076528
          --------------------------------

  Eigenvector is saved on CCRE_1_1  

  VIP all done  ! 
 @CHECKOUT-I, Total execution time (CPU/WALL):        0.29/       0.18 seconds.
--executable xvip finished with status     0 in        0.20 seconds (walltime).
  The final electronic energy is       -75.833339369743271 a.u. 
  This computation required                           34.69 seconds (walltime).
 
Timing info
56.564u 8.288s 0:34.69 186.9% 0+0k 0+985536io 87pf+0w
 
Scratch space info (BEFORE cleaning //scratch/mdavis)
 
Cleaning up ...
Filesystem      Size  Used Avail Use% Mounted on
/dev/sda9       785G  457G  289G  62% /scratch
 
Scratch space info (AFTER cleaning //scratch/mdavis)
Filesystem      Size  Used Avail Use% Mounted on
/dev/sda9       785G  457G  289G  62% /scratch
