 --invoking executable--
/home/qc/cfour_v2.1_intel_2017_eland2/bin/xjoda


   *************************************************************************
         <<<     CCCCCC     CCCCCC   |||     CCCCCC     CCCCCC   >>>
       <<<      CCC        CCC       |||    CCC        CCC         >>>
      <<<      CCC        CCC        |||   CCC        CCC            >>>
    <<<        CCC        CCC        |||   CCC        CCC              >>>
      <<<      CCC        CCC        |||   CCC        CCC            >>>
       <<<      CCC        CCC       |||    CCC        CCC         >>>
         <<<     CCCCCC     CCCCCC   |||     CCCCCC     CCCCCC   >>>
   *************************************************************************

     ****************************************************************
     * CFOUR Coupled-Cluster techniques for Computational Chemistry *
     ****************************************************************
 

   Department of Chemistry                Institut fuer Physikalische Chemie
   University of Florida                  Universitaet Mainz
   Gainesville, FL 32611, USA             D-55099 Mainz, Germany

   Department of Chemistry                Fakultaet fuer Chemie und Biowiss.
   Johns Hopkins University               Karlsruher Institut fuer Technologie
   Baltimore, MD 21218, USA               D-76131 Karlsruhe, Germany

   Department of Chemistry                Department of Physical Chemistry
   Southern Methodist University          Eotvos Lorand University
   Dallas, TX 75275, USA                  H-1053 Budapest, Hungary

 
                       Version 2.1
 
                     node8.cl.olemiss.edu                              
                     Fri 04 Nov 2022 09:26:57 AM CDT                   
                     integer*8 version is running
 
********************************************************************************
*                          Input from ZMAT file                                *
********************************************************************************
h2o AUG-PVTZ CC3                                                                
H        0.0000000000       -1.5289051598       -0.9717468156                   
O        0.0000000000        0.0000000000        0.1272294412                   
H        0.0000000000        1.5289051598       -0.9717468156                   
                                                                                
                                                                                
                                                                                
*CFOUR(CALC=CC3,BASIS=AUG-PVTZ,COORDINATES=CARTESIAN,UNITS=BOHR                 
CC_CONV=9                                                                       
LINEQ_CONV=12                                                                   
SCF_CONV=9                                                                      
ESTATE_CONV=10                                                                  
CHARGE=0                                                                        
MULTIPLICITY=1                                                                  
FROZEN_CORE=ON                                                                  
RELATIVISTIC=OFF                                                                
REFERENCE=RHF                                                                   
EXCITE=EOMIP                                                                    
ESTATE_SYM=0/1/0/0                                                              
MEM_UNIT=GB,MEMORY_SIZE=32)                                                     
                                                                                
H:APVTZ-X2C                                                                     
O:APVTZ-X2C                                                                     
H:APVTZ-X2C                                                                     
                                                                                
********************************************************************************
    -------------------------------------------------------------------
                    CFOUR Control Parameters 
    -------------------------------------------------------------------
        External           Internal           Value            Units
          Name               Name
    -------------------------------------------------------------------
       ABCDTYPE             IABCDT         STANDARD    [  0]    ***   
       ANHARMONIC           IANHAR         OFF         [  0]    ***   
       ANH_ALGORIT          IANALG         STANDARD    [  0]    ***   
       ANH_DERIVAT          IANDER         SECOND      [  1]    ***   
       ANH_MODE             ANHMOD         VIBRATION   [  0]    ***   
       ANH_STEPSIZ          ICUBST             50000          x 10-6  
       ANH_SYMMETR          IANHSM         ABELIAN     [  0]    ***   
       AO_LADDERS           IAOLAD         SINGLEPASS  [  1]    ***   
       AV_SCF               IAVSCF         OFF         [  0]    ***   
       BASIS                IBASIS         AUG-PVTZ    [ 34]    ***   
       BOTHVECTORS          BOTHVC         OFF         [  0]    ***   
       BOX_POTENT           IPIAB          OFF         [  0]    ***   
       BREIT                IBREIT         OFF         [  0]    ***   
       BRUCK_CONV           IBRTOL          10D-  4             ***   
       BRUECKNER            IBRKNR         OFF         [  0]    ***   
       BUFFERSIZE           IBUFFS              4096            ***   
       CACHE_RECS           ICHREC             10               ***   
       CALCLEVEL            ICLLVL         CC3         [ 32]    ***   
       CCORBOPT             ICCORB         OFF         [  0]  x 0.01  
       CC_CONV              ICCCNV          10D-  9             ***   
       CC_EXPORDER          ICCEOR              5               ***   
       CC_EXTRAPOL          ICCEXT         DIIS        [  1]    ***   
       CC_GUESS             ICCGES         MP2         [  0]    ***   
       CC_MAXCYC            ICCCYC            100              cycles 
       CC_PROGRAM           ICCPRO         VCC         [  0]    ***   
       CHARGE               ICHRGE              0               ***   
       CHOLESKY             ICHOLE         OFF         [  0]    ***   
       CIS_CONV             ICISTL              5               ***   
       COMM_SIZE            IPSIZE            ***               ***   
       CONSTANT             ICONST         OLD         [  1]    ***   
       CONTINUUM            ICONTU         NONE        [  0]    ***   
       CONTRACTION          ICNTYP         GENERAL     [  1]    ***   
       COORDINATES          ICOORD         CARTESIAN   [  1]    ***   
       CPHF_CONVER          ICPHFT          10D- 16             ***   
       CPHF_MAXCYC          ICPHFC             64              cycles 
       CUBIC                ICUBIC         OFF         [  0]    ***   
       CURVILINEAR          ICURVY         OFF         [  0]    ***   
       DBOC                 IDBOC          OFF         [  0]    ***   
       DCT                  IDCT           OFF         [  0]    ***   
       DERIV_LEV            IDRLVL         ZERO        [  0]    ***   
       DEVMEM_SIZE          IDVMEM         *********           MByte  
       DIAG_MRCC            IEOMST          10D-  0             ***   
       DIFF_TYPE            IDIFTY         RELAXED     [  0]    ***   
       DIRECT               IDIRCT         OFF         [  0]    ***   
       DROPMO               IDRPMO      NONE         
       ECP                  IECP           OFF         [  0]    ***   
       EIGENVECTOR          IVEC                1               ***   
       EL_ANHARM            IELANH         OFF         [  0]    ***   
       EOMFOLLOW            IEOMSR         ENERGY      [  0]    ***   
       EOMIP                IEOMIP         OFF         [  0]    ***   
       EOMLEVEL             HBARFM         SAME        [  0]    ***   
       EOM_MRCC             IMRCCE         NEW         [  1]    ***   
       EOM_NONIT            EOMNON         OFF         [  0]    ***   
       EOM_NSING            IEOMSI          10D-  0             ***   
       EOM_NSTATES          IMRCCD         DAVIDSON    [  0]    ***   
       EOM_NTRIP            IEOMTR          10D-  0             ***   
       EOM_ORDER            IEXORD         ENERGY      [  0]    ***   
       EOM_PROPSTA          IEOMST              0               ***   
       ESTATE_CONV          IEXTOL          10D- 10             ***   
       ESTATE_DIAG          IEXDIG         ITERATIVE   [  0]    ***   
       ESTATE_LOCK          IESLOC         ON          [  1]    ***   
       ESTATE_MAXC          IEXMXC             40               ***   
       ESTATE_PROP          IEXPRP         OFF         [  0]    ***   
       ESTATE_SYM           IEXSYM   0,  1,  0,  0,
       EVAL_HESS            IRECAL              0            # of cyc.
       EXCITATION           IEXCIT              0               ***   
       EXCITE               IEXCIT         EOMIP       [  4]    ***   
       EXTERN_POT           IEXPOT         OFF         [  0]    ***   
       FCGRADNEW            IFCGNW         OFF         [  0]    ***   
       FC_FIELD             IFINFC              0             x 10-6  
       FD_CALTYPE           IFDCAL         GRADONLY    [  0]    ***   
       FD_PROJECT           IFDPRJ         OFF         [  1]    ***   
       FD_STEPSIZE          IDISFD              0            10-4 bohr
       FD_USEGROUP          IFDGRP         FULL        [  0]    ***   
       FILE_RECSIZ          IFLREC              4096           words  
       FINITE_PERT          IFIPER              0             x 10-6  
       FIXGEOM              IFIXGM         OFF         [  0]    ***   
       FOCK                 IFOCK          AO          [  1]    ***   
       FREQ_ALGORI          IVIALG         STANDARD    [  0]    ***   
       FROZEN_CORE          IFROCO         ON          [  1]    ***   
       GAMMA_ABCD           IGABCD         STORE       [  0]    ***   
       GAMMA_ABCI           IGABCI         STORE       [  0]    ***   
       GENBAS_1             IGNBS1              0               ***   
       GENBAS_2             IGNBS2              0               ***   
       GENBAS_3             IGNBS3              0               ***   
       GENBAS_4             IGNBS4              0               ***   
       GEO_CONV             ICONTL              5              H/bohr 
       GEO_MAXCYC           IOPTCY             50               ***   
       GEO_MAXSTEP          IMXSTP            300            millibohr
       GEO_METHOD           INR            SINGLE_POINT[  5]    ***   
       GIAO                 IGIAO          OFF         [  1]    ***   
       GIMIC                IGIMIC         OFF         [  0]    ***   
       GRID                 IGRID          OFF         [  0]    ***   
       GRID_ALGO            IGALGO         SERIAL      [  0]    ***   
       GUESS                IGUESS         MOREAD      [  0]    ***   
       HBAR                 IHBAR          ON          [  1]    ***   
       HESS_TYPE            IHESTP         SCF         [  0]    ***   
       HF2_FILE             IHF2Fl         USE         [  1]    ***   
       HFSTABILITY          ISTABL         OFF         [  0]    ***   
       INCORE               INCORE         OFF         [  0]    ***   
       INPUT_MRCC           IMRCC          ON          [  1]    ***   
       INTEGRALS            INTTYP         VMOL        [  1]    ***   
       JODA_PRINT           IJPRNT              0               ***   
       KEYWORD_OUT          IDMPKW         NO          [  0]    ***   
       LINDEP_TOL           ILINDP              8               ***   
       LINEQ_CONV           IZTACN          10D- 12           cycles  
       LINEQ_EXPOR          ILMAXD              5               ***   
       LINEQ_MAXCY          ILMAXC            100               ***   
       LINEQ_TYPE           ILTYPE         DIIS        [  1]    ***   
       LOCK_ORBOCC          ILOCOC         OFF         [  0]    ***   
       MEMORY_SIZE          IMEMSZ         *********           words  
       MEM_UNIT             IMEMU          GB          [  3]    ***   
       MRCC                 IMRCCC         OFF         [  0]    ***   
       MULTIPLICTY          IMULTP              1               ***   
       NACOUPLING           IVCOUP         OFF         [  0]    ***   
       NEGEVAL              IDIE           ABORT       [  0]    ***   
       NEWNORM              INEWNO         OFF         [  0]    ***   
       NON-HF               INONHF         OFF         [  0]    ***   
       NTOP_TAMP            ITOPT2             15               ***   
       NUC_MODEL            INUCMO         POINT       [  0]    ***   
       OCCUPATION           IOCCU   ESTIMATED BY SCF 
       OPEN-SHELL           IOPEN          SPIN-ORBITAL[  0]    ***   
       OPTVIB               IOPTVB         OFF         [  0]    ***   
       ORBITALS             IORBTP         STANDARD    [  0]    ***   
       PARALLEL             IPARAL         ON          [  1]    ***   
       PARA_INT             IPINTS         ON          [  1]    ***   
       PARA_PRINT           IPPRIN              0               ***   
       PERT_ORB             IPTORB         STANDARD    [  0]    ***   
       POINTS               IGRDFD              0               ***   
       PRINT                IPRNT               0               ***   
       PROPS                IPROPS         OFF         [  0]    ***   
       PROP_INTEGR          IINTYP         INTERNAL    [  0]    ***   
       PSI                  IPSI           OFF         [  0]    ***   
       QC_ALG               IQCALG         FLM         [  0]    ***   
       QC_LINALG            IQCLIN         TRIDIAG     [  2]    ***   
       QC_MAXCYC            IQCMAX          10D-100           cycles  
       QC_MAXSCFCY          IQCMSC          10D- 15           cycles  
       QC_RTRUST            IQCRTR          10D-  0           x 10-3  
       QC_SKIPSCF           IQCSKI         OFF         [  0]    ***   
       QC_START             IQCSTA          10D-  1             ***   
       QRHFGUESS            IQGUES         OFF         [  0]    ***   
       QUARTIC              IQUART         OFF         [  0]    ***   
       RAMAN_INT            IRAMIN         OFF         [  0]    ***   
       RAMAN_ORB            IRAMRE         UNRELAXED   [  0]    ***   
       RDO                  IRDOFM         OFF         [  0]    ***   
       REDUCE_REPR          REDREP         Ir          [  0]    ***   
       REFERENCE            IREFNC         RHF         [  0]    ***   
       RELATIVIST           IRELAT         OFF         [  0]    ***   
       RELAX_DENS           IRDENS         OFF         [  0]    ***   
       RESET_FLAGS          IRESET         OFF         [  0]    ***   
       RESTART_CC           ICCRES         OFF         [  0]    ***   
       ROT_EVEC             ROTVEC              0               ***   
       SAVE_INTS            ISVINT         OFF         [  0]    ***   
       SCALE_ON             ISTCRT              0               ***   
       SCF_CONV             ISCFCV          10D-  9             ***   
       SCF_DAMPING          IDAMP               0             x 10-3  
       SCF_EXPORDE          IRPPOR              6               ***   
       SCF_EXPSTAR          IRPPLS              8               ***   
       SCF_EXTRAPO          IRPP           ON          [  1]    ***   
       SCF_MAXCYC           ISCFCY            150              cycles 
       SCF_NOSTOP           ISCFST         OFF         [  0]    ***   
       SCF_PRINT            ISCFPR              0               ***   
       SCF_PROG             ISCFPR         SCF         [  0]    ***   
       SD_FIELD             IFINSD              0             x 10-6  
       SOPERT               IPERSO         OFF         [  0]    ***   
       SPHERICAL            IDFGHI         ON          [  1]    ***   
       SPINORBIT            ISOCAL         OFF         [  0]    ***   
       SPINROTATIO          ISRCON         OFF         [  0]    ***   
       SPIN_FLIP            ISPFLP         OFF         [  0]    ***   
       SPIN_ORBIT           ISPORB         OFF         [  0]    ***   
       SPIN_SCAL            ISCSMP         OFF         [  0]    ***   
       STEEPSCALE           ISTPSC              1000          x 10-3  
       SUBGROUP             ISUBGP         DEFAULT     [  0]    ***   
       SUBGRPAXIS           ISBXYZ         X           [  0]    ***   
       SYMMETRY             ISYM           ON          [  0]    ***   
       SYM_CHECK            ISYMCK         OVERRIDE    [  1]    ***   
       T3_EXTRAPOL          IT3EXT         OFF         [  0]    ***   
       T4_EXTRAPOL          IT4EXP         OFF         [  0]    ***   
       TAMP_SUM             IEVERY              5               ***   
       TESTSUITE            ITESTS         OFF         [  0]    ***   
       THERMOCH             ITHERM         OFF         [  0]    ***   
       TOL_CHOLESK          ITOLCH          10D-  4             ***   
       TRANGRAD             IRESRM         OFF         [  0]    ***   
       TRANS_INV            ITRAIN         USE         [  0]    ***   
       TREAT_PERT           ITREAT         SIMULTANEOUS[  0]    ***   
       TRIP_ALGORI          ITRALG         NORMAL      [  0]    ***   
       UIJ_THRESHO          IUIJTH              1               ***   
       UNITS                IUNITS         BOHR        [  1]    ***   
       UNOS                 IUNOS          OFF         [  0]    ***   
       UPDATE_HESS          IHUPDT         ON          [  1]    ***   
       VIBPHASE             ISETPH         STANDARD    [  0]    ***   
       VIBRATION            IVIB           NO          [  0]    ***   
       VIB_ALGORIT          IGEALG         STANDARD    [  0]    ***   
       VNATORB              IVNORB         OFF         [  0]    ***   
       VTRAN                IVTRAN         FULL/PARTIAL[  0]    ***   
       XFIELD               IXEFLD              0             x 10-6  
       XFORM_TOL            IXFTOL          10D- 11             ***   
       YFIELD               IYEFLD              0             x 10-6  
       ZFIELD               IZEFLD              0             x 10-6  
       ZSCALE_EXP           IZEXPS         OFF         [  0]    ***   
    -------------------------------------------------------------------
  @GETXYZ-I,     3 atoms read from ZMAT.
   Rotational constants (in cm-1): 
          8.7580575299            12.7766865576            27.8450573916
   Rotational constants (in MHz): 
     262559.9962025822        383035.4804819342        834773.9368085475
********************************************************************************
   The full molecular point group is C2v .
   The largest Abelian subgroup of the full molecular point group is C2v .
   The computational point group is C2v .
********************************************************************************


 ----------------------------------------------------------------
         Coordinates used in calculation (QCOMP) 
 ----------------------------------------------------------------
 Z-matrix   Atomic            Coordinates (in bohr)
  Symbol    Number           X              Y              Z
 ----------------------------------------------------------------
     H         1         0.00000000    -1.52890516    -0.97598447
     O         8         0.00000000     0.00000000     0.12299179
     H         1         0.00000000     1.52890516    -0.97598447
 ----------------------------------------------------------------
 
   Interatomic distance matrix (Angstroms) 
 
                 H             O             H    
                [ 1]        [ 2]        [ 3]
  H    [ 1]     0.00000
  O    [ 2]     0.99639     0.00000
  H    [ 3]     1.61812     0.99639     0.00000
 rotcon2
   Rotational constants (in cm-1): 
          8.7580575299            27.8450573916            12.7766865576
   Rotational constants (in MHz): 
     262559.9962025822        834773.9368085475        383035.4804819342
  There is   1 frozen-core orbital.
  There are   92 basis functions.
 @GEOPT-W, Archive file not created for single-point calculation.
 @CHECKOUT-I, Total execution time (CPU/WALL):        0.13/       0.20 seconds.
--executable xjoda finished with status     0 in        0.23 seconds (walltime).
 --invoking executable--
/home/qc/cfour_v2.1_intel_2017_eland2/bin/xvmol
 SERIAL VERSION OF MOLECULE STARTED
********************************************************************************
                    INPUT FROM MOL FILE
********************************************************************************
INTGRL        1    0    1    0    0    0    0    0    0                         
         *** CFOUR Program System (Release V0.1) ***                            
h2o AUG-PVTZ CC3                                                                
    2    2 X  Y       0.10E-08              0    0                              
   9999.00      3.00                                                            
          1.00000000    1    3    1    1    1                                   
H #1   0.000000000000000  -1.528905159800000  -0.975984468044634                
    6    4                                                                      
   33.8700000000000       6.068000000000000E-003  0.000000000000000E+000        
  0.000000000000000E+000  0.000000000000000E+000                                
   5.09500000000000       4.530800000000000E-002  0.000000000000000E+000        
  0.000000000000000E+000  0.000000000000000E+000                                
   1.15900000000000       0.202822000000000       0.000000000000000E+000        
  0.000000000000000E+000  0.000000000000000E+000                                
  0.325800000000000       0.503903000000000        1.00000000000000             
  0.000000000000000E+000  0.000000000000000E+000                                
  0.102700000000000       0.383421000000000       0.000000000000000E+000        
   1.00000000000000       0.000000000000000E+000                                
  2.526000000000000E-002  0.000000000000000E+000  0.000000000000000E+000        
  0.000000000000000E+000   1.00000000000000                                     
    3    3                                                                      
   1.40700000000000        1.00000000000000       0.000000000000000E+000        
  0.000000000000000E+000                                                        
  0.388000000000000       0.000000000000000E+000   1.00000000000000             
  0.000000000000000E+000                                                        
  0.102000000000000       0.000000000000000E+000  0.000000000000000E+000        
   1.00000000000000                                                             
    2    2                                                                      
   1.05700000000000        1.00000000000000       0.000000000000000E+000        
  0.247000000000000       0.000000000000000E+000   1.00000000000000             
          8.00000000    1    4    1    1    1    1                              
O #2   0.000000000000000   0.000000000000000   0.122991788755366                
   11    5                                                                      
   15330.0000000000       5.080000000000000E-004 -1.150000000000000E-004        
  0.000000000000000E+000  0.000000000000000E+000  0.000000000000000E+000        
   2299.00000000000       3.929000000000000E-003 -8.950000000000000E-004        
  0.000000000000000E+000  0.000000000000000E+000  0.000000000000000E+000        
   522.400000000000       2.024300000000000E-002 -4.636000000000000E-003        
  0.000000000000000E+000  0.000000000000000E+000  0.000000000000000E+000        
   147.300000000000       7.918100000000000E-002 -1.872400000000000E-002        
  0.000000000000000E+000  0.000000000000000E+000  0.000000000000000E+000        
   47.5500000000000       0.230687000000000      -5.846300000000000E-002        
  0.000000000000000E+000  0.000000000000000E+000  0.000000000000000E+000        
   16.7600000000000       0.433118000000000      -0.136463000000000             
  0.000000000000000E+000  0.000000000000000E+000  0.000000000000000E+000        
   6.20700000000000       0.350260000000000      -0.175740000000000             
  0.000000000000000E+000  0.000000000000000E+000  0.000000000000000E+000        
   1.75200000000000       4.272800000000000E-002  0.160934000000000             
   1.00000000000000       0.000000000000000E+000  0.000000000000000E+000        
  0.688200000000000      -8.154000000000000E-003  0.603418000000000             
  0.000000000000000E+000  0.000000000000000E+000  0.000000000000000E+000        
  0.238400000000000       2.381000000000000E-003  0.378765000000000             
  0.000000000000000E+000   1.00000000000000       0.000000000000000E+000        
  7.376000000000001E-002  0.000000000000000E+000  0.000000000000000E+000        
  0.000000000000000E+000  0.000000000000000E+000   1.00000000000000             
    6    4                                                                      
   34.4600000000000       1.592800000000000E-002  0.000000000000000E+000        
  0.000000000000000E+000  0.000000000000000E+000                                
   7.74900000000000       9.974000000000000E-002  0.000000000000000E+000        
  0.000000000000000E+000  0.000000000000000E+000                                
   2.28000000000000       0.310492000000000       0.000000000000000E+000        
  0.000000000000000E+000  0.000000000000000E+000                                
  0.715600000000000       0.491026000000000        1.00000000000000             
  0.000000000000000E+000  0.000000000000000E+000                                
  0.214000000000000       0.336337000000000       0.000000000000000E+000        
   1.00000000000000       0.000000000000000E+000                                
  5.974000000000000E-002  0.000000000000000E+000  0.000000000000000E+000        
  0.000000000000000E+000   1.00000000000000                                     
    3    3                                                                      
   2.31400000000000        1.00000000000000       0.000000000000000E+000        
  0.000000000000000E+000                                                        
  0.645000000000000       0.000000000000000E+000   1.00000000000000             
  0.000000000000000E+000                                                        
  0.214000000000000       0.000000000000000E+000  0.000000000000000E+000        
   1.00000000000000                                                             
    2    2                                                                      
   1.42800000000000        1.00000000000000       0.000000000000000E+000        
  0.500000000000000       0.000000000000000E+000   1.00000000000000             
FINISH                                                                          
 
********************************************************************************
 ONE- AND TWO-ELECTRON INTEGRALS OVER SYMMETRY-ADAPTED AOS ARE CALCULATED.

  SPHERICAL HARMONICS ARE USED.
  
  INTEGRALS LESS THAN  0.10E-13 ARE NEGLECTED.

  NUCLEAR REPULSION ENERGY :    8.8245769199 A.U.
  @MOLECU-I, ONE ELECTRON INTEGRALS (CPU/WALL):        0.02/       0.02 SECONDS.
  @TWOEL-I,     262933 INTEGRALS OF SYMMETRY TYPE  I I I I
  @TWOEL-I,     865293 INTEGRALS OF SYMMETRY TYPE  I J I J
  @TWOEL-I,     466389 INTEGRALS OF SYMMETRY TYPE  I I J J
  @TWOEL-I,     575256 INTEGRALS OF SYMMETRY TYPE  I J K L
  @TWOEL-I, TOTAL NUMBER OF 2-E INTEGRALS    2169871.
  @MOLECU-I, TWO ELECTRON INTEGRALS (CPU/WALL):        0.88/       0.88 SECONDS.
 @CHECKOUT-I, Total execution time (CPU/WALL):        0.91/       0.91 seconds.

OMP_NUM_THREADS not specified; defaulting to 1
Running with 1 threads/proc

--executable xvmol finished with status     0 in        0.94 seconds (walltime).
 --invoking executable--
/home/qc/cfour_v2.1_intel_2017_eland2/bin/xvmol2ja
 @GETMEM-I,  Allocated   30517 MB of main memory.
 @CHECKOUT-I, Total execution time (CPU/WALL):        0.02/       0.03 seconds.
--executable xvmol2ja finished with status     0 in        0.06 seconds (walltime).
 --invoking executable--
/home/qc/cfour_v2.1_intel_2017_eland2/bin/xvscf
  There are   92 functions in the AO basis.

  There are 4 irreducible representations.

       Irrep        # of functions
         1                 35
         2                 18
         3                 27
         4                 12


  Parameters for SCF calculation: 
        SCF reference function:  RHF  
  Maximum number of iterations:  150
     Full symmetry point group: C2v 
     Computational point group: C2v 
        Initial density matrix: MOREAD                 
     SCF convergence tolerance: 10**(- 9)
  DIIS convergence acceleration:  ON
          Latest start for DIIS:   8
                     DIIS order:   6

  Memory information:     401180 words required.
  Fock matrices are constructed from AO integral file.
 @GETMEM-I,  Allocated       3 MB of main memory.
  Initialization and symmetry analysis required      0.001 seconds.

  @INITGES-I, Occupancies from core Hamiltonian:

          Alpha population by irrep:   3    1    1    0
           Beta population by irrep:   3    1    1    0


 total no. of electrons in initial guess :  0.000000000000000E+000
  --------------------------------------------------------------------
  Iteration         Total Energy            Largest Density Difference
  --------------------------------------------------------------------
       0             8.824576919857929              0.0000000000D+00
   current occupation vector 
     3  1  1  0
     3  1  1  0
       1           -61.246561084260307              0.1230348439D+02
   current occupation vector 
     3  1  1  0
     3  1  1  0
       2           -63.682006832307437              0.2955297548D+02
   current occupation vector 
     3  0  2  0
     3  0  2  0
       3           -70.790810050563309              0.2955318142D+02
   current occupation vector 
     3  1  1  0
     3  1  1  0
       4           -67.772482440471933              0.2542145170D+02
   current occupation vector 
     3  0  2  0
     3  0  2  0
       5           -72.149390419312084              0.2542099665D+02
   current occupation vector 
     3  1  1  0
     3  1  1  0
       6           -68.740963142757721              0.2385441084D+02
   current occupation vector 
     3  0  2  0
     3  0  2  0
       7           -72.519322281031393              0.2385453505D+02
   current occupation vector 
     3  1  1  0
     3  1  1  0
       8           -69.007578277517126              0.2345479921D+02
   current occupation vector 
     3  0  2  0
     3  0  2  0
       9           -75.766959403199778              0.2345573095D+02
   current occupation vector 
     3  1  1  0
     3  1  1  0
      10           -76.044610606300537              0.5257200750D+00
   current occupation vector 
     3  1  1  0
     3  1  1  0
      11           -76.054691389717220              0.8912115380D-01
   current occupation vector 
     3  1  1  0
     3  1  1  0
      12           -76.054821253673779              0.1181091847D-01
   current occupation vector 
     3  1  1  0
     3  1  1  0
      13           -76.054833677251480              0.4130548656D-02
   current occupation vector 
     3  1  1  0
     3  1  1  0
      14           -76.054835663215144              0.2393950161D-02
   current occupation vector 
     3  1  1  0
     3  1  1  0
      15           -76.054835696606872              0.3305104137D-03
   current occupation vector 
     3  1  1  0
     3  1  1  0
      16           -76.054835697247114              0.3152272554D-04
   current occupation vector 
     3  1  1  0
     3  1  1  0
      17           -76.054835697320527              0.1607870241D-04
   current occupation vector 
     3  1  1  0
     3  1  1  0
      18           -76.054835697322773              0.2970636986D-05
   current occupation vector 
     3  1  1  0
     3  1  1  0
      19           -76.054835697323497              0.3100864541D-06
   current occupation vector 
     3  1  1  0
     3  1  1  0
      20           -76.054835697322801              0.3396083892D-07
   current occupation vector 
     3  1  1  0
     3  1  1  0
      21           -76.054835697323128              0.7767505944D-08
   current occupation vector 
     3  1  1  0
     3  1  1  0
      22           -76.054835697323185              0.1146161721D-08
   current occupation vector 
     3  1  1  0
     3  1  1  0

  SCF has converged.

 Density matrix saved to file den.dat
 total electron number:   10.0000000000000     
     E(SCF)=       -76.054835697323384              0.4470592507D-09

  Eigenvector printing suppressed.

 @PUTMOS-I, Writing converged MOs to NEWMOS. 
 @PUTMOS-I, Symmetry   1 Full Blocks  8 Partial Blocksize   3
 @PUTMOS-I, Symmetry   2 Full Blocks  4 Partial Blocksize   2
 @PUTMOS-I, Symmetry   3 Full Blocks  6 Partial Blocksize   3
 @PUTMOS-I, Symmetry   4 Full Blocks  3 Partial Blocksize   0
 @PUTFOCK-I, Writing converged Fock matrix to NEWFOCK. 
 @PUTFOCK-I, Symmetry   1 Full Blocks  8 Partial Blocksize   3
 @PUTFOCK-I, Symmetry   2 Full Blocks  4 Partial Blocksize   2
 @PUTFOCK-I, Symmetry   3 Full Blocks  6 Partial Blocksize   3
 @PUTFOCK-I, Symmetry   4 Full Blocks  3 Partial Blocksize   0


 
  ORBITAL EIGENVALUES (ALPHA)  (1H = 27.2113834 eV)

       MO #        E(hartree)               E(eV)           FULLSYM    COMPSYM
       ----   --------------------   --------------------   -------   ---------
    1     1         -20.5719498909        -559.7912157671      A1        A1 (1)
    2     2          -1.3316458754         -36.2359264690      A1        A1 (1)
    3    54          -0.7039992351         -19.1567931001      B2        B2 (3)
    4     3          -0.5696810136         -15.5018084770      A1        A1 (1)
    5    36          -0.5059794479         -13.7684007484      B1        B1 (2)
  +++++++++++++++++++++++++++++++++++++++++++++++++++++++++++++++++++++++++++++
    6     4           0.0291539715           0.7933198962      A1        A1 (1)
    7    55           0.0472584048           1.2859665732      B2        B2 (3)
    8     5           0.1362848896           3.7085003823      A1        A1 (1)
    9    37           0.1598223770           4.3489879753      B1        B1 (2)
   10     6           0.1726235057           4.6973243980      A1        A1 (1)
   11    56           0.1819210809           4.9503242804      B2        B2 (3)
   12    57           0.2253948174           6.1333047921      B2        B2 (3)
   13     7           0.2427611570           6.6058669169      A1        A1 (1)
   14    81           0.2634104417           7.1677625217      A2        A2 (4)
   15    38           0.3030903147           8.2475067585      B1        B1 (2)
   16     8           0.3118416222           8.4856419419      A1        A1 (1)
   17    58           0.3641474251           9.9089551984      B2        B2 (3)
   18     9           0.4293692856          11.6837322518      A1        A1 (1)
   19    59           0.4593852350          12.5005077567      B2        B2 (3)
   20    60           0.6002230704          16.3329000934      B2        B2 (3)
   21    10           0.6500491309          17.6887361287      A1        A1 (1)
   22    11           0.7103454373          19.3294820404      A1        A1 (1)
   23    82           0.7200165645          19.5926467918      A2        A2 (4)
   24    39           0.7324828704          19.9318722196      B1        B1 (2)
   25    12           0.8146686859          22.1682619555      A1        A1 (1)
   26    40           0.8396911895          22.8491588955      B1        B1 (2)
   27    13           0.8981538787          24.4400095443      A1        A1 (1)
   28    61           0.9042927771          24.6070574635      B2        B2 (3)
   29    83           0.9154997121          24.9120136691      A2        A2 (4)
   30    62           0.9261998181          25.2031783549      B2        B2 (3)
   31    41           0.9291749242          25.2841351085      B1        B1 (2)
   32    14           0.9675732631          26.3290070300      A1        A1 (1)
   33    15           1.0093706990          27.4663730822      A1        A1 (1)
   34    63           1.0326690735          28.1003540845      B2        B2 (3)
   35    42           1.0787203173          29.3534721342      B1        B1 (2)
   36    64           1.1050517521          30.0699869038      B2        B2 (3)
   37    84           1.1621854727          31.6246744788      A2        A2 (4)
   38    16           1.1622672348          31.6268993405      A1        A1 (1)
   39    65           1.2738153122          34.6622768404      B2        B2 (3)
   40    85           1.5020837020          40.8737755132      A2        A2 (4)
   41    43           1.5730859497          42.8058448982      B1        B1 (2)
   42    17           1.5741808924          42.8356398050      A1        A1 (1)
   43    66           1.7496665044          47.6108460732      B2        B2 (3)
   44    18           1.8153976255          49.3994808111      A1        A1 (1)
   45    67           1.9548693908          53.1947004909      B2        B2 (3)
   46    19           2.0756381200          56.4809846817      A1        A1 (1)
   47    44           2.2545118600          61.3483866033      B1        B1 (2)
   48    86           2.3086359729          62.8211785894      A2        A2 (4)
   49    20           2.3255482515          63.2813850855      A1        A1 (1)
   50    21           2.4017398069          65.3546627116      A1        A1 (1)
   51    45           2.4040105559          65.4164529350      B1        B1 (2)
   52    68           2.4394553133          66.3809538161      B2        B2 (3)
   53    22           2.4892377191          67.7356019492      A1        A1 (1)
   54    46           2.7117016771          73.7891540030      B1        B1 (2)
   55    69           2.7145525745          73.8667308632      B2        B2 (3)
   56    23           2.7222426017          74.0759871415      A1        A1 (1)
   57    70           2.8514756371          77.5925968165      B2        B2 (3)
   58    87           2.8610757035          77.8538279050      A2        A2 (4)
   59    71           3.5746923388          97.2723237680      B2        B2 (3)
   60    24           3.7121029075         101.0114554365      A1        A1 (1)
   61    88           3.9777496840         108.2400717219      A2        A2 (4)
   62    47           4.0460488528         110.0985865881      B1        B1 (2)
   63    25           4.1727708413         113.5468672031      A1        A1 (1)
   64    72           4.1762842929         113.6424730827      B2        B2 (3)
   65    48           4.3002949894         117.0169756904      B1        B1 (2)
   66    89           4.3650670073         118.7795119017      A2        A2 (4)
   67    49           4.3724136900         118.9794253027      B1        B1 (2)
   68    26           4.4448737335         120.9511633260      A1        A1 (1)
   69    73           4.4606372239         121.3801097088      B2        B2 (3)
   70    27           4.6470672529         126.4531287048      A1        A1 (1)
   71    74           4.7079295479         128.1092759481      B2        B2 (3)
   72    75           5.0206977762         136.6201321239      B2        B2 (3)
   73    90           5.0702082117         137.9673795676      A2        A2 (4)
   74    28           5.1798138976         140.9499019085      A1        A1 (1)
   75    76           5.2450001580         142.7237102335      B2        B2 (3)
   76    50           5.3902619392         146.6764842529      B1        B1 (2)
   77    29           5.6456858127         153.6269212059      A1        A1 (1)
   78    30           6.0727090355         165.2468138428      A1        A1 (1)
   79    77           6.5495312143         178.2218049613      B2        B2 (3)
   80    51           6.6956043032         182.1966557881      B1        B1 (2)
   81    31           6.7978181561         184.9780361292      A1        A1 (1)
   82    52           7.0997195825         193.1931915915      B1        B1 (2)
   83    91           7.2075991393         196.1287435731      A2        A2 (4)
   84    53           7.2220920057         196.5231145180      B1        B1 (2)
   85    32           7.2829860163         198.1801247868      A1        A1 (1)
   86    78           7.2956094917         198.5236270158      B2        B2 (3)
   87    92           7.3630164347         200.3578631847      A2        A2 (4)
   88    33           7.4419735523         202.5063955855      A1        A1 (1)
   89    79           7.7842022471         211.8189118094      B2        B2 (3)
   90    34           7.8879470589         214.6419516591      A1        A1 (1)
   91    80           8.5740717059         233.3123524890      B2        B2 (3)
   92    35          14.7170979310         400.4725943366      A1        A1 (1)


  VSCF finished.

 @CHECKOUT-I, Total execution time (CPU/WALL):        0.83/       0.60 seconds.
--executable xvscf finished with status     0 in        0.63 seconds (walltime).
 --invoking executable--
/home/qc/cfour_v2.1_intel_2017_eland2/bin/xvtran
 @GETMEM-I,  Allocated   30517 MB of main memory.
  Full RHF integral transformation
  The following   1 MOs will be dropped:
    1
  There are  91 active molecular orbitals.
  Transformation of IIII integrals :
  1 pass through the AO integral file was required.
      262933 AO integrals were read.
      266728 MO integrals were written to HF2.
  Transformation of IIJJ integrals :
  1 pass through the AO integral file was required.
      466389 AO integrals were read.
      480525 MO integrals were written to HF2.
  Transformation of IJIJ integrals :
  1 pass through the AO integral file was required.
      865293 AO integrals were read.
      887262 MO integrals were written to HF2.
  Transformation of IJKL integrals :
  1 pass through the AO integral file was required.
      575256 AO integrals were read.
      594864 MO integrals were written to HF2.
  Summary of active molecular orbitals: 
------------------------------------------------------------------------
 
  Index      Eigenvalue    Symmetry    Index      Eigenvalue    Symmetry
------------------------------------------------------------------------
     1        -1.3316459        1        47         4.0460489        2
     2        -0.5696810        1        48         4.3002950        2
     3        -0.5059794        2        49         4.3724137        2
     4        -0.7039992        3        50         5.3902619        2
     5         0.0291540        1        51         6.6956043        2
     6         0.1362849        1        52         7.0997196        2
     7         0.1726235        1        53         7.2220920        2
     8         0.2427612        1        54         0.0472584        3
     9         0.3118416        1        55         0.1819211        3
    10         0.4293693        1        56         0.2253948        3
    11         0.6500491        1        57         0.3641474        3
    12         0.7103454        1        58         0.4593852        3
    13         0.8146687        1        59         0.6002231        3
    14         0.8981539        1        60         0.9042928        3
    15         0.9675733        1        61         0.9261998        3
    16         1.0093707        1        62         1.0326691        3
    17         1.1622672        1        63         1.1050518        3
    18         1.5741809        1        64         1.2738153        3
    19         1.8153976        1        65         1.7496665        3
    20         2.0756381        1        66         1.9548694        3
    21         2.3255483        1        67         2.4394553        3
    22         2.4017398        1        68         2.7145526        3
    23         2.4892377        1        69         2.8514756        3
    24         2.7222426        1        70         3.5746923        3
    25         3.7121029        1        71         4.1762843        3
    26         4.1727708        1        72         4.4606372        3
    27         4.4448737        1        73         4.7079295        3
    28         4.6470673        1        74         5.0206978        3
    29         5.1798139        1        75         5.2450002        3
    30         5.6456858        1        76         6.5495312        3
    31         6.0727090        1        77         7.2956095        3
    32         6.7978182        1        78         7.7842022        3
    33         7.2829860        1        79         8.5740717        3
    34         7.4419736        1        80         0.2634104        4
    35         7.8879471        1        81         0.7200166        4
    36        14.7170979        1        82         0.9154997        4
    37         0.1598224        2        83         1.1621855        4
    38         0.3030903        2        84         1.5020837        4
    39         0.7324829        2        85         2.3086360        4
    40         0.8396912        2        86         2.8610757        4
    41         0.9291749        2        87         3.9777497        4
    42         1.0787203        2        88         4.3650670        4
    43         1.5730859        2        89         5.0702082        4
    44         2.2545119        2        90         7.2075991        4
    45         2.4040106        2        91         7.3630164        4
    46         2.7117017        2
------------------------------------------------------------------------
  -1.33164587541803      -0.569681013610266      -0.505979447867280     
 -0.703999235119491       2.915397150384606E-002  0.136284889592874     
  0.172623505721312       0.242761156967514       0.311841622203279     
  0.429369285641841       0.650049130860453       0.710345437286570     
  0.814668685880341       0.898153878654161       0.967573263107078     
   1.00937069896174        1.16226723484198        1.57418089243593     
   1.81539762550784        2.07563811995297        2.32554825145399     
   2.40173980686228        2.48923771913910        2.72224260165649     
   3.71210290751128        4.17277084130400        4.44487373346944     
   4.64706725292105        5.17981389760800        5.64568581272107     
   6.07270903554352        6.79781815610336        7.28298601631372     
   7.44197355234524        7.88794705891792        14.7170979310290     
  0.159822376957924       0.303090314715473       0.732482870370893     
  0.839691189515901       0.929174924215000        1.07872031725575     
   1.57308594969212        2.25451186003763        2.40401055592863     
   2.71170167713628        4.04604885277888        4.30029498942880     
   4.37241369002489        5.39026193915781        6.69560430316633     
   7.09971958248725        7.22209200573108       4.725840484881460E-002
  0.181921080882109       0.225394817380177       0.364147425096053     
  0.459385234956795       0.600223070371491       0.904292777099635     
  0.926199818082663        1.03266907350708        1.10505175211956     
   1.27381531217468        1.74966650439224        1.95486939083313     
   2.43945531325243        2.71455257446362        2.85147563708398     
   3.57469233879542        4.17628429294569        4.46063722393446     
   4.70792954790001        5.02069777620633        5.24500015804191     
   6.54953121425288        7.29560949171832        7.78420224711451     
   8.57407170592382       0.263410441739838       0.720016564529406     
  0.915499712122033        1.16218547267286        1.50208370196835     
   2.30863597289131        2.86107570352389        3.97774968404878     
   4.36506700727793        5.07020821174308        7.20759913930489     
   7.36301643468387     
 @CHECKOUT-I, Total execution time (CPU/WALL):        1.02/       0.55 seconds.
--executable xvtran finished with status     0 in        0.59 seconds (walltime).
 --invoking executable--
/home/qc/cfour_v2.1_intel_2017_eland2/bin/xintprc
 @GETMEM-I,  Allocated   30517 MB of main memory.
  @GMOIAA-I, Processing MO integrals for spin case AA.
  @GMOIAA-I, Generation of integral list completed.
                      TYPE                NUMBER
                      ----               --------
                      PPPP               1862118
                      PPPH                340336
                      PPHH                 15793
                      PHPH                 10160
                      PHHH                   950
                      HHHH                    22

                     TOTAL               2229379

  @FORMT2-I, Second-order MP correlation energies:
            ------------------------------------------------
            E(SCF)                  =    -76.054835697323 a.u.
            E2(AA)                  =     -0.032892838704 a.u.
            E2(AB)                  =     -0.205440902546 a.u.
            E2(TOT)                 =     -0.271226579955 a.u.
            Total MP2 energy        =    -76.326062277278 a.u.
            ------------------------------------------------
   Largest T2 amplitudes for spin case AB:
       _       _                 _       _                 _       _
   i   j   a   b             i   j   a   b             i   j   a   b
-----------------------------------------------------------------------------
[  4   4  58  58]-0.02126 [  2   2  14  14]-0.01918 [  3   3  42  42]-0.01609
[  3   3  41  41]-0.01456 [  4   2  58  14]-0.01392 [  2   4  14  58]-0.01392
[  4   4  62  58]-0.01370 [  4   4  58  62]-0.01370 [  3   3  42  41]-0.01325
[  3   3  41  42]-0.01325 [  4   4  58  55]-0.01293 [  4   4  55  58]-0.01293
[  3   2  41  14]-0.01286 [  2   3  14  41]-0.01286 [  4   4  59  59]-0.01274
-----------------------------------------------------------------------------
   Norm of T2AB vector (    31238 symmetry allowed elements):  0.2218865199.
-----------------------------------------------------------------------------
 @CHECKOUT-I, Total execution time (CPU/WALL):        0.61/       0.41 seconds.
--executable xintprc finished with status     0 in        0.44 seconds (walltime).
  calling xvcc 
 --invoking executable--
/home/qc/cfour_v2.1_intel_2017_eland2/bin/xvcc
 @GETMEM-I,  Allocated   30517 MB of main memory.
   CC3 energy will be calculated.
   The total correlation energy is -0.271226579955 a.u.
   The total correlation energy is -0.278930567109 a.u.
  Convergence information after     1 iterations: 
  Largest element of residual vector :  0.10188916E-01.
  Largest element of DIIS residual   :  0.10188916E-01.
   The total correlation energy is -0.283691959310 a.u.
  Convergence information after     2 iterations: 
  Largest element of residual vector :  0.15901989E-02.
  Largest element of DIIS residual   : -0.17714606E-02.
   The total correlation energy is -0.284595101888 a.u.
  Convergence information after     3 iterations: 
  Largest element of residual vector :  0.18201152E-02.
  Largest element of DIIS residual   :  0.11404578E-02.
   The total correlation energy is -0.285084107090 a.u.
  Convergence information after     4 iterations: 
  Largest element of residual vector :  0.25788872E-03.
  Largest element of DIIS residual   : -0.13736663E-03.
   The total correlation energy is -0.285120317502 a.u.
  Convergence information after     5 iterations: 
  Largest element of residual vector :  0.14671288E-03.
  Largest element of DIIS residual   :  0.70012808E-04.
   The total correlation energy is -0.285123685403 a.u.
  Convergence information after     6 iterations: 
  Largest element of residual vector :  0.33747424E-04.
  Largest element of DIIS residual   :  0.24295982E-04.
   The total correlation energy is -0.285122975843 a.u.
  Convergence information after     7 iterations: 
  Largest element of residual vector :  0.17700909E-04.
  Largest element of DIIS residual   :  0.10191863E-04.
   The total correlation energy is -0.285122907685 a.u.
  Convergence information after     8 iterations: 
  Largest element of residual vector :  0.50112883E-05.
  Largest element of DIIS residual   :  0.27569100E-05.
   The total correlation energy is -0.285123140487 a.u.
  Convergence information after     9 iterations: 
  Largest element of residual vector :  0.18301087E-05.
  Largest element of DIIS residual   : -0.13542869E-05.
   The total correlation energy is -0.285123167540 a.u.
  Convergence information after    10 iterations: 
  Largest element of residual vector :  0.60277674E-06.
  Largest element of DIIS residual   :  0.36438618E-06.
   The total correlation energy is -0.285123181363 a.u.
  Convergence information after    11 iterations: 
  Largest element of residual vector : -0.20151999E-06.
  Largest element of DIIS residual   : -0.90677750E-07.
   The total correlation energy is -0.285123184087 a.u.
  Convergence information after    12 iterations: 
  Largest element of residual vector :  0.58384726E-07.
  Largest element of DIIS residual   :  0.26111666E-07.
   The total correlation energy is -0.285123184692 a.u.
  Convergence information after    13 iterations: 
  Largest element of residual vector :  0.10753775E-07.
  Largest element of DIIS residual   :  0.81879540E-08.
   The total correlation energy is -0.285123185078 a.u.
  Convergence information after    14 iterations: 
  Largest element of residual vector :  0.70553299E-08.
  Largest element of DIIS residual   :  0.35242072E-08.
   The total correlation energy is -0.285123185309 a.u.
  Convergence information after    15 iterations: 
  Largest element of residual vector :  0.22558337E-08.
  Largest element of DIIS residual   :  0.13269068E-08.
   The total correlation energy is -0.285123185356 a.u.
  Convergence information after    16 iterations: 
  Largest element of residual vector :  0.96858972E-09.
  Largest element of DIIS residual   :  0.31301051E-09.
  Amplitude equations converged in    16iterations.
   The total correlation energy is -0.285123185364 a.u.
   The CC iterations have converged.

   Largest T1 amplitudes for spin case AA:
   i       a                 i       a                 i       a    
-----------------------------------------------------------------------------
[  3      37    ] 0.01511 [  3      38    ]-0.01264 [  2       6    ] 0.00875
[  2       9    ] 0.00780 [  4      66    ]-0.00536 [  3      47    ]-0.00390
[  2       5    ] 0.00388 [  3      40    ] 0.00370 [  4      62    ]-0.00345
[  2      20    ]-0.00339 [  4      73    ]-0.00339 [  2      28    ]-0.00332
[  3      41    ] 0.00294 [  1      14    ]-0.00274 [  1       9    ]-0.00268
-----------------------------------------------------------------------------
   Norm of T1AA vector (      107 symmetry allowed elements):  0.0280270061.
-----------------------------------------------------------------------------
   Largest T2 amplitudes for spin case AB:
       _       _                 _       _                 _       _
   i   j   a   b             i   j   a   b             i   j   a   b
-----------------------------------------------------------------------------
[  4   4  58  58]-0.02449 [  2   2  14  14]-0.02098 [  3   3  42  42]-0.01704
[  4   4  62  58]-0.01584 [  4   4  58  62]-0.01584 [  3   3  41  41]-0.01560
[  4   4  59  59]-0.01510 [  3   3  37  37]-0.01459 [  4   4  58  55]-0.01457
[  4   4  55  58]-0.01457 [  3   3  42  41]-0.01446 [  3   3  41  42]-0.01446
[  2   2  59  59]-0.01430 [  4   2  58  14]-0.01397 [  2   4  14  58]-0.01397
-----------------------------------------------------------------------------
   Norm of T2AB vector (    31238 symmetry allowed elements):  0.2495139172.
-----------------------------------------------------------------------------
       Summary of iterative solution of CC equations 
      -----------------------------------------------------------
                       Correlation           Total
       Iteration         Energy              Energy
      -----------------------------------------------------------
            0        -0.271226579955     -76.326062277278  DIIS 
            1        -0.278930567109     -76.333766264432  DIIS 
            2        -0.283691959310     -76.338527656634  DIIS 
            3        -0.284595101888     -76.339430799211  DIIS 
            4        -0.285084107090     -76.339919804413  DIIS 
            5        -0.285120317502     -76.339956014825  DIIS 
            6        -0.285123685403     -76.339959382726  DIIS 
            7        -0.285122975843     -76.339958673166  DIIS 
            8        -0.285122907685     -76.339958605008  DIIS 
            9        -0.285123140487     -76.339958837811  DIIS 
           10        -0.285123167540     -76.339958864863  DIIS 
           11        -0.285123181363     -76.339958878687  DIIS 
           12        -0.285123184087     -76.339958881410  DIIS 
           13        -0.285123184692     -76.339958882016  DIIS 
           14        -0.285123185078     -76.339958882402  DIIS 
           15        -0.285123185309     -76.339958882633  DIIS 
           16        -0.285123185364     -76.339958882688  DIIS 
      -----------------------------------------------------------
      A miracle has come to pass. The CC iterations have converged.
      The reference energy is       -76.05483569732338 a.u.
      The correlation energy is      -0.28512318536418 a.u.
      The total energy is           -76.33995888268757 a.u.
 @CHECKOUT-I, Total execution time (CPU/WALL):       30.02/      15.03 seconds.
--executable xvcc finished with status     0 in       15.07 seconds (walltime).
 --invoking executable--
/home/qc/cfour_v2.1_intel_2017_eland2/bin/xlambda
 @GETMEM-I,  Allocated   30517 MB of main memory.
 Hbar is calculated for a CCSD wave function.
 Calculation of Hbar completed.
 @CHECKOUT-I, Total execution time (CPU/WALL):        0.53/       0.29 seconds.
--executable xlambda finished with status     0 in        0.32 seconds (walltime).
 --invoking executable--
/home/qc/cfour_v2.1_intel_2017_eland2/bin/xvip
 @GETMEM-I,  Allocated   30517 MB of main memory.
 IPs are calculated using the EOMIP-CCSD method.
  Summary of active alpha molecular orbitals:
------------------------------------------------------------------------------
Orbital Symm. Eigenvalue  <xx>     <yy>     <zz>     <xy>     <xz>     <yz>
------------------------------------------------------------------------------
    1     1      -1.3316   0.000    0.000    0.000    0.000    0.000    0.000
    2     1      -0.5697   0.000    0.000    0.000    0.000    0.000    0.000
    3     2      -0.5060   0.000    0.000    0.000    0.000    0.000    0.000
    4     3      -0.7040   0.000    0.000    0.000    0.000    0.000    0.000
    5     1       0.0292   0.000    0.000    0.000    0.000    0.000    0.000
    6     1       0.1363   0.000    0.000    0.000    0.000    0.000    0.000
    7     1       0.1726   0.000    0.000    0.000    0.000    0.000    0.000
    8     1       0.2428   0.000    0.000    0.000    0.000    0.000    0.000
    9     1       0.3118   0.000    0.000    0.000    0.000    0.000    0.000
   10     1       0.4294   0.000    0.000    0.000    0.000    0.000    0.000
   11     1       0.6500   0.000    0.000    0.000    0.000    0.000    0.000
   12     1       0.7103   0.000    0.000    0.000    0.000    0.000    0.000
   13     1       0.8147   0.000    0.000    0.000    0.000    0.000    0.000
   14     1       0.8982   0.000    0.000    0.000    0.000    0.000    0.000
   15     1       0.9676   0.000    0.000    0.000    0.000    0.000    0.000
   16     1       1.0094   0.000    0.000    0.000    0.000    0.000    0.000
   17     1       1.1623   0.000    0.000    0.000    0.000    0.000    0.000
   18     1       1.5742   0.000    0.000    0.000    0.000    0.000    0.000
   19     1       1.8154   0.000    0.000    0.000    0.000    0.000    0.000
   20     1       2.0756   0.000    0.000    0.000    0.000    0.000    0.000
   21     1       2.3255   0.000    0.000    0.000    0.000    0.000    0.000
   22     1       2.4017   0.000    0.000    0.000    0.000    0.000    0.000
   23     1       2.4892   0.000    0.000    0.000    0.000    0.000    0.000
   24     1       2.7222   0.000    0.000    0.000    0.000    0.000    0.000
   25     1       3.7121   0.000    0.000    0.000    0.000    0.000    0.000
   26     1       4.1728   0.000    0.000    0.000    0.000    0.000    0.000
   27     1       4.4449   0.000    0.000    0.000    0.000    0.000    0.000
   28     1       4.6471   0.000    0.000    0.000    0.000    0.000    0.000
   29     1       5.1798   0.000    0.000    0.000    0.000    0.000    0.000
   30     1       5.6457   0.000    0.000    0.000    0.000    0.000    0.000
   31     1       6.0727   0.000    0.000    0.000    0.000    0.000    0.000
   32     1       6.7978   0.000    0.000    0.000    0.000    0.000    0.000
   33     1       7.2830   0.000    0.000    0.000    0.000    0.000    0.000
   34     1       7.4420   0.000    0.000    0.000    0.000    0.000    0.000
   35     1       7.8879   0.000    0.000    0.000    0.000    0.000    0.000
   36     1      14.7171   0.000    0.000    0.000    0.000    0.000    0.000
   37     2       0.1598   0.000    0.000    0.000    0.000    0.000    0.000
   38     2       0.3031   0.000    0.000    0.000    0.000    0.000    0.000
   39     2       0.7325   0.000    0.000    0.000    0.000    0.000    0.000
   40     2       0.8397   0.000    0.000    0.000    0.000    0.000    0.000
   41     2       0.9292   0.000    0.000    0.000    0.000    0.000    0.000
   42     2       1.0787   0.000    0.000    0.000    0.000    0.000    0.000
   43     2       1.5731   0.000    0.000    0.000    0.000    0.000    0.000
   44     2       2.2545   0.000    0.000    0.000    0.000    0.000    0.000
   45     2       2.4040   0.000    0.000    0.000    0.000    0.000    0.000
   46     2       2.7117   0.000    0.000    0.000    0.000    0.000    0.000
   47     2       4.0460   0.000    0.000    0.000    0.000    0.000    0.000
   48     2       4.3003   0.000    0.000    0.000    0.000    0.000    0.000
   49     2       4.3724   0.000    0.000    0.000    0.000    0.000    0.000
   50     2       5.3903   0.000    0.000    0.000    0.000    0.000    0.000
   51     2       6.6956   0.000    0.000    0.000    0.000    0.000    0.000
   52     2       7.0997   0.000    0.000    0.000    0.000    0.000    0.000
   53     2       7.2221   0.000    0.000    0.000    0.000    0.000    0.000
   54     3       0.0473   0.000    0.000    0.000    0.000    0.000    0.000
   55     3       0.1819   0.000    0.000    0.000    0.000    0.000    0.000
   56     3       0.2254   0.000    0.000    0.000    0.000    0.000    0.000
   57     3       0.3641   0.000    0.000    0.000    0.000    0.000    0.000
   58     3       0.4594   0.000    0.000    0.000    0.000    0.000    0.000
   59     3       0.6002   0.000    0.000    0.000    0.000    0.000    0.000
   60     3       0.9043   0.000    0.000    0.000    0.000    0.000    0.000
   61     3       0.9262   0.000    0.000    0.000    0.000    0.000    0.000
   62     3       1.0327   0.000    0.000    0.000    0.000    0.000    0.000
   63     3       1.1051   0.000    0.000    0.000    0.000    0.000    0.000
   64     3       1.2738   0.000    0.000    0.000    0.000    0.000    0.000
   65     3       1.7497   0.000    0.000    0.000    0.000    0.000    0.000
   66     3       1.9549   0.000    0.000    0.000    0.000    0.000    0.000
   67     3       2.4395   0.000    0.000    0.000    0.000    0.000    0.000
   68     3       2.7146   0.000    0.000    0.000    0.000    0.000    0.000
   69     3       2.8515   0.000    0.000    0.000    0.000    0.000    0.000
   70     3       3.5747   0.000    0.000    0.000    0.000    0.000    0.000
   71     3       4.1763   0.000    0.000    0.000    0.000    0.000    0.000
   72     3       4.4606   0.000    0.000    0.000    0.000    0.000    0.000
   73     3       4.7079   0.000    0.000    0.000    0.000    0.000    0.000
   74     3       5.0207   0.000    0.000    0.000    0.000    0.000    0.000
   75     3       5.2450   0.000    0.000    0.000    0.000    0.000    0.000
   76     3       6.5495   0.000    0.000    0.000    0.000    0.000    0.000
   77     3       7.2956   0.000    0.000    0.000    0.000    0.000    0.000
   78     3       7.7842   0.000    0.000    0.000    0.000    0.000    0.000
   79     3       8.5741   0.000    0.000    0.000    0.000    0.000    0.000
   80     4       0.2634   0.000    0.000    0.000    0.000    0.000    0.000
   81     4       0.7200   0.000    0.000    0.000    0.000    0.000    0.000
   82     4       0.9155   0.000    0.000    0.000    0.000    0.000    0.000
   83     4       1.1622   0.000    0.000    0.000    0.000    0.000    0.000
   84     4       1.5021   0.000    0.000    0.000    0.000    0.000    0.000
   85     4       2.3086   0.000    0.000    0.000    0.000    0.000    0.000
   86     4       2.8611   0.000    0.000    0.000    0.000    0.000    0.000
   87     4       3.9777   0.000    0.000    0.000    0.000    0.000    0.000
   88     4       4.3651   0.000    0.000    0.000    0.000    0.000    0.000
   89     4       5.0702   0.000    0.000    0.000    0.000    0.000    0.000
   90     4       7.2076   0.000    0.000    0.000    0.000    0.000    0.000
   91     4       7.3630   0.000    0.000    0.000    0.000    0.000    0.000
------------------------------------------------------------------------------
  nsizec is                    331
  @DOEOMIP2-I, right-hand eigenvectors will be computed.
  Beginning symmetry block   2.   1 roots requested.
  1   1  0.5853890277D+00  0.1592924527D+02  0.0000000000D+00  0.4601282609D+00
  2   2  0.5281833072D+00  0.1437259848D+02  0.9945049827D+00  0.8909834200D-01
  3   3  0.5075786763D+00  0.1381191797D+02  0.9968289621D+00  0.2144532295D-01
  4   4  0.5065957650D+00  0.1378517159D+02  0.9998698875D+00  0.4183136623D-02
  L-O-C-K-I-N-G O-N R-O-O-T 
  5   5  0.5064851719D+00  0.1378216220D+02  0.9999965847D+00  0.1013621504D-02
  6   6  0.5064795985D+00  0.1378201054D+02  0.9999997799D+00  0.1783612577D-03
  7   7  0.5064797839D+00  0.1378201558D+02  0.9999999911D+00  0.4777918183D-04
  8   8  0.5064793446D+00  0.1378200363D+02  0.9999999995D+00  0.8760745830D-05
  9   9  0.5064794031D+00  0.1378200522D+02  0.1000000000D+01  0.2108253270D-05
 10  10  0.5064793955D+00  0.1378200502D+02  0.1000000000D+01  0.3961136964D-06
 11  11  0.5064793978D+00  0.1378200508D+02  0.1000000000D+01  0.6901951887D-07
 12  12  0.5064793977D+00  0.1378200508D+02  0.1000000000D+01  0.1180826078D-07
 13  13  0.5064793978D+00  0.1378200508D+02  0.1000000000D+01  0.2232386516D-08
 14  14  0.5064793978D+00  0.1378200508D+02  0.1000000000D+01  0.3668490944D-09
 15  15  0.5064793978D+00  0.1378200508D+02  0.1000000000D+01  0.7162452351D-10
  Converged eigenvalue:   0.506479397761206       a.u.
   Total EOMIP-CCSD electronic energy     -75.83347948492636 a.u.
          --------------------------------
             I    J    A       C(IJA)
          --------------------------------
              0    3    0   -0.6977626857
              3    3   37    0.0370817692
              3    3   41    0.0312965558
              3    3   42    0.0275771965
              4    3   58    0.0273894351
              3    3   38   -0.0263761874
              2    3   14    0.0235752957
              2    3    6    0.0226309026
              4    3   55    0.0218389359
              2    3    9    0.0203188484
              3    3   40    0.0168045226
              1    3   10    0.0159061780
              4    3   62    0.0150104954
              1    3    7    0.0131817113
              2    3   10    0.0130692751
          --------------------------------

  Eigenvector is saved on CCRE_1_1  

  VIP all done  ! 
 @CHECKOUT-I, Total execution time (CPU/WALL):        0.21/       0.14 seconds.
--executable xvip finished with status     0 in        0.18 seconds (walltime).
  The final electronic energy is       -75.833479484926357 a.u. 
  This computation required                           18.50 seconds (walltime).
 
Timing info
29.203u 5.450s 0:18.51 187.1% 0+0k 0+501912io 240pf+0w
 
Scratch space info (BEFORE cleaning //scratch/mdavis)
 
Cleaning up ...
Filesystem      Size  Used Avail Use% Mounted on
/dev/sda9       785G  290G  456G  39% /scratch
 
Scratch space info (AFTER cleaning //scratch/mdavis)
Filesystem      Size  Used Avail Use% Mounted on
/dev/sda9       785G  290G  456G  39% /scratch
