 --invoking executable--
/home/qc/cfour_v2.1_intel_2017_eland2/bin/xjoda


   *************************************************************************
         <<<     CCCCCC     CCCCCC   |||     CCCCCC     CCCCCC   >>>
       <<<      CCC        CCC       |||    CCC        CCC         >>>
      <<<      CCC        CCC        |||   CCC        CCC            >>>
    <<<        CCC        CCC        |||   CCC        CCC              >>>
      <<<      CCC        CCC        |||   CCC        CCC            >>>
       <<<      CCC        CCC       |||    CCC        CCC         >>>
         <<<     CCCCCC     CCCCCC   |||     CCCCCC     CCCCCC   >>>
   *************************************************************************

     ****************************************************************
     * CFOUR Coupled-Cluster techniques for Computational Chemistry *
     ****************************************************************
 

   Department of Chemistry                Institut fuer Physikalische Chemie
   University of Florida                  Universitaet Mainz
   Gainesville, FL 32611, USA             D-55099 Mainz, Germany

   Department of Chemistry                Fakultaet fuer Chemie und Biowiss.
   Johns Hopkins University               Karlsruher Institut fuer Technologie
   Baltimore, MD 21218, USA               D-76131 Karlsruhe, Germany

   Department of Chemistry                Department of Physical Chemistry
   Southern Methodist University          Eotvos Lorand University
   Dallas, TX 75275, USA                  H-1053 Budapest, Hungary

 
                       Version 2.1
 
                     node5                                             
                     Fri 04 Nov 2022 09:27:04 AM CDT                   
                     integer*8 version is running
 
********************************************************************************
*                          Input from ZMAT file                                *
********************************************************************************
h2o AUG-PVTZ CC3                                                                
H        0.0000000000       -1.5234918431       -0.9666124809                   
O        0.0000000000        0.0000000000        0.1169607719                   
H        0.0000000000        1.5234918431       -0.9666124809                   
                                                                                
                                                                                
                                                                                
*CFOUR(CALC=CC3,BASIS=AUG-PVTZ,COORDINATES=CARTESIAN,UNITS=BOHR                 
CC_CONV=9                                                                       
LINEQ_CONV=12                                                                   
SCF_CONV=9                                                                      
ESTATE_CONV=10                                                                  
CHARGE=0                                                                        
MULTIPLICITY=1                                                                  
FROZEN_CORE=ON                                                                  
RELATIVISTIC=OFF                                                                
REFERENCE=RHF                                                                   
EXCITE=EOMIP                                                                    
ESTATE_SYM=0/1/0/0                                                              
MEM_UNIT=GB,MEMORY_SIZE=32)                                                     
                                                                                
H:APVTZ-X2C                                                                     
O:APVTZ-X2C                                                                     
H:APVTZ-X2C                                                                     
                                                                                
********************************************************************************
    -------------------------------------------------------------------
                    CFOUR Control Parameters 
    -------------------------------------------------------------------
        External           Internal           Value            Units
          Name               Name
    -------------------------------------------------------------------
       ABCDTYPE             IABCDT         STANDARD    [  0]    ***   
       ANHARMONIC           IANHAR         OFF         [  0]    ***   
       ANH_ALGORIT          IANALG         STANDARD    [  0]    ***   
       ANH_DERIVAT          IANDER         SECOND      [  1]    ***   
       ANH_MODE             ANHMOD         VIBRATION   [  0]    ***   
       ANH_STEPSIZ          ICUBST             50000          x 10-6  
       ANH_SYMMETR          IANHSM         ABELIAN     [  0]    ***   
       AO_LADDERS           IAOLAD         SINGLEPASS  [  1]    ***   
       AV_SCF               IAVSCF         OFF         [  0]    ***   
       BASIS                IBASIS         AUG-PVTZ    [ 34]    ***   
       BOTHVECTORS          BOTHVC         OFF         [  0]    ***   
       BOX_POTENT           IPIAB          OFF         [  0]    ***   
       BREIT                IBREIT         OFF         [  0]    ***   
       BRUCK_CONV           IBRTOL          10D-  4             ***   
       BRUECKNER            IBRKNR         OFF         [  0]    ***   
       BUFFERSIZE           IBUFFS              4096            ***   
       CACHE_RECS           ICHREC             10               ***   
       CALCLEVEL            ICLLVL         CC3         [ 32]    ***   
       CCORBOPT             ICCORB         OFF         [  0]  x 0.01  
       CC_CONV              ICCCNV          10D-  9             ***   
       CC_EXPORDER          ICCEOR              5               ***   
       CC_EXTRAPOL          ICCEXT         DIIS        [  1]    ***   
       CC_GUESS             ICCGES         MP2         [  0]    ***   
       CC_MAXCYC            ICCCYC            100              cycles 
       CC_PROGRAM           ICCPRO         VCC         [  0]    ***   
       CHARGE               ICHRGE              0               ***   
       CHOLESKY             ICHOLE         OFF         [  0]    ***   
       CIS_CONV             ICISTL              5               ***   
       COMM_SIZE            IPSIZE            ***               ***   
       CONSTANT             ICONST         OLD         [  1]    ***   
       CONTINUUM            ICONTU         NONE        [  0]    ***   
       CONTRACTION          ICNTYP         GENERAL     [  1]    ***   
       COORDINATES          ICOORD         CARTESIAN   [  1]    ***   
       CPHF_CONVER          ICPHFT          10D- 16             ***   
       CPHF_MAXCYC          ICPHFC             64              cycles 
       CUBIC                ICUBIC         OFF         [  0]    ***   
       CURVILINEAR          ICURVY         OFF         [  0]    ***   
       DBOC                 IDBOC          OFF         [  0]    ***   
       DCT                  IDCT           OFF         [  0]    ***   
       DERIV_LEV            IDRLVL         ZERO        [  0]    ***   
       DEVMEM_SIZE          IDVMEM         *********           MByte  
       DIAG_MRCC            IEOMST          10D-  0             ***   
       DIFF_TYPE            IDIFTY         RELAXED     [  0]    ***   
       DIRECT               IDIRCT         OFF         [  0]    ***   
       DROPMO               IDRPMO      NONE         
       ECP                  IECP           OFF         [  0]    ***   
       EIGENVECTOR          IVEC                1               ***   
       EL_ANHARM            IELANH         OFF         [  0]    ***   
       EOMFOLLOW            IEOMSR         ENERGY      [  0]    ***   
       EOMIP                IEOMIP         OFF         [  0]    ***   
       EOMLEVEL             HBARFM         SAME        [  0]    ***   
       EOM_MRCC             IMRCCE         NEW         [  1]    ***   
       EOM_NONIT            EOMNON         OFF         [  0]    ***   
       EOM_NSING            IEOMSI          10D-  0             ***   
       EOM_NSTATES          IMRCCD         DAVIDSON    [  0]    ***   
       EOM_NTRIP            IEOMTR          10D-  0             ***   
       EOM_ORDER            IEXORD         ENERGY      [  0]    ***   
       EOM_PROPSTA          IEOMST              0               ***   
       ESTATE_CONV          IEXTOL          10D- 10             ***   
       ESTATE_DIAG          IEXDIG         ITERATIVE   [  0]    ***   
       ESTATE_LOCK          IESLOC         ON          [  1]    ***   
       ESTATE_MAXC          IEXMXC             40               ***   
       ESTATE_PROP          IEXPRP         OFF         [  0]    ***   
       ESTATE_SYM           IEXSYM   0,  1,  0,  0,
       EVAL_HESS            IRECAL              0            # of cyc.
       EXCITATION           IEXCIT              0               ***   
       EXCITE               IEXCIT         EOMIP       [  4]    ***   
       EXTERN_POT           IEXPOT         OFF         [  0]    ***   
       FCGRADNEW            IFCGNW         OFF         [  0]    ***   
       FC_FIELD             IFINFC              0             x 10-6  
       FD_CALTYPE           IFDCAL         GRADONLY    [  0]    ***   
       FD_PROJECT           IFDPRJ         OFF         [  1]    ***   
       FD_STEPSIZE          IDISFD              0            10-4 bohr
       FD_USEGROUP          IFDGRP         FULL        [  0]    ***   
       FILE_RECSIZ          IFLREC              4096           words  
       FINITE_PERT          IFIPER              0             x 10-6  
       FIXGEOM              IFIXGM         OFF         [  0]    ***   
       FOCK                 IFOCK          AO          [  1]    ***   
       FREQ_ALGORI          IVIALG         STANDARD    [  0]    ***   
       FROZEN_CORE          IFROCO         ON          [  1]    ***   
       GAMMA_ABCD           IGABCD         STORE       [  0]    ***   
       GAMMA_ABCI           IGABCI         STORE       [  0]    ***   
       GENBAS_1             IGNBS1              0               ***   
       GENBAS_2             IGNBS2              0               ***   
       GENBAS_3             IGNBS3              0               ***   
       GENBAS_4             IGNBS4              0               ***   
       GEO_CONV             ICONTL              5              H/bohr 
       GEO_MAXCYC           IOPTCY             50               ***   
       GEO_MAXSTEP          IMXSTP            300            millibohr
       GEO_METHOD           INR            SINGLE_POINT[  5]    ***   
       GIAO                 IGIAO          OFF         [  1]    ***   
       GIMIC                IGIMIC         OFF         [  0]    ***   
       GRID                 IGRID          OFF         [  0]    ***   
       GRID_ALGO            IGALGO         SERIAL      [  0]    ***   
       GUESS                IGUESS         MOREAD      [  0]    ***   
       HBAR                 IHBAR          ON          [  1]    ***   
       HESS_TYPE            IHESTP         SCF         [  0]    ***   
       HF2_FILE             IHF2Fl         USE         [  1]    ***   
       HFSTABILITY          ISTABL         OFF         [  0]    ***   
       INCORE               INCORE         OFF         [  0]    ***   
       INPUT_MRCC           IMRCC          ON          [  1]    ***   
       INTEGRALS            INTTYP         VMOL        [  1]    ***   
       JODA_PRINT           IJPRNT              0               ***   
       KEYWORD_OUT          IDMPKW         NO          [  0]    ***   
       LINDEP_TOL           ILINDP              8               ***   
       LINEQ_CONV           IZTACN          10D- 12           cycles  
       LINEQ_EXPOR          ILMAXD              5               ***   
       LINEQ_MAXCY          ILMAXC            100               ***   
       LINEQ_TYPE           ILTYPE         DIIS        [  1]    ***   
       LOCK_ORBOCC          ILOCOC         OFF         [  0]    ***   
       MEMORY_SIZE          IMEMSZ         *********           words  
       MEM_UNIT             IMEMU          GB          [  3]    ***   
       MRCC                 IMRCCC         OFF         [  0]    ***   
       MULTIPLICTY          IMULTP              1               ***   
       NACOUPLING           IVCOUP         OFF         [  0]    ***   
       NEGEVAL              IDIE           ABORT       [  0]    ***   
       NEWNORM              INEWNO         OFF         [  0]    ***   
       NON-HF               INONHF         OFF         [  0]    ***   
       NTOP_TAMP            ITOPT2             15               ***   
       NUC_MODEL            INUCMO         POINT       [  0]    ***   
       OCCUPATION           IOCCU   ESTIMATED BY SCF 
       OPEN-SHELL           IOPEN          SPIN-ORBITAL[  0]    ***   
       OPTVIB               IOPTVB         OFF         [  0]    ***   
       ORBITALS             IORBTP         STANDARD    [  0]    ***   
       PARALLEL             IPARAL         ON          [  1]    ***   
       PARA_INT             IPINTS         ON          [  1]    ***   
       PARA_PRINT           IPPRIN              0               ***   
       PERT_ORB             IPTORB         STANDARD    [  0]    ***   
       POINTS               IGRDFD              0               ***   
       PRINT                IPRNT               0               ***   
       PROPS                IPROPS         OFF         [  0]    ***   
       PROP_INTEGR          IINTYP         INTERNAL    [  0]    ***   
       PSI                  IPSI           OFF         [  0]    ***   
       QC_ALG               IQCALG         FLM         [  0]    ***   
       QC_LINALG            IQCLIN         TRIDIAG     [  2]    ***   
       QC_MAXCYC            IQCMAX          10D-100           cycles  
       QC_MAXSCFCY          IQCMSC          10D- 15           cycles  
       QC_RTRUST            IQCRTR          10D-  0           x 10-3  
       QC_SKIPSCF           IQCSKI         OFF         [  0]    ***   
       QC_START             IQCSTA          10D-  1             ***   
       QRHFGUESS            IQGUES         OFF         [  0]    ***   
       QUARTIC              IQUART         OFF         [  0]    ***   
       RAMAN_INT            IRAMIN         OFF         [  0]    ***   
       RAMAN_ORB            IRAMRE         UNRELAXED   [  0]    ***   
       RDO                  IRDOFM         OFF         [  0]    ***   
       REDUCE_REPR          REDREP         Ir          [  0]    ***   
       REFERENCE            IREFNC         RHF         [  0]    ***   
       RELATIVIST           IRELAT         OFF         [  0]    ***   
       RELAX_DENS           IRDENS         OFF         [  0]    ***   
       RESET_FLAGS          IRESET         OFF         [  0]    ***   
       RESTART_CC           ICCRES         OFF         [  0]    ***   
       ROT_EVEC             ROTVEC              0               ***   
       SAVE_INTS            ISVINT         OFF         [  0]    ***   
       SCALE_ON             ISTCRT              0               ***   
       SCF_CONV             ISCFCV          10D-  9             ***   
       SCF_DAMPING          IDAMP               0             x 10-3  
       SCF_EXPORDE          IRPPOR              6               ***   
       SCF_EXPSTAR          IRPPLS              8               ***   
       SCF_EXTRAPO          IRPP           ON          [  1]    ***   
       SCF_MAXCYC           ISCFCY            150              cycles 
       SCF_NOSTOP           ISCFST         OFF         [  0]    ***   
       SCF_PRINT            ISCFPR              0               ***   
       SCF_PROG             ISCFPR         SCF         [  0]    ***   
       SD_FIELD             IFINSD              0             x 10-6  
       SOPERT               IPERSO         OFF         [  0]    ***   
       SPHERICAL            IDFGHI         ON          [  1]    ***   
       SPINORBIT            ISOCAL         OFF         [  0]    ***   
       SPINROTATIO          ISRCON         OFF         [  0]    ***   
       SPIN_FLIP            ISPFLP         OFF         [  0]    ***   
       SPIN_ORBIT           ISPORB         OFF         [  0]    ***   
       SPIN_SCAL            ISCSMP         OFF         [  0]    ***   
       STEEPSCALE           ISTPSC              1000          x 10-3  
       SUBGROUP             ISUBGP         DEFAULT     [  0]    ***   
       SUBGRPAXIS           ISBXYZ         X           [  0]    ***   
       SYMMETRY             ISYM           ON          [  0]    ***   
       SYM_CHECK            ISYMCK         OVERRIDE    [  1]    ***   
       T3_EXTRAPOL          IT3EXT         OFF         [  0]    ***   
       T4_EXTRAPOL          IT4EXP         OFF         [  0]    ***   
       TAMP_SUM             IEVERY              5               ***   
       TESTSUITE            ITESTS         OFF         [  0]    ***   
       THERMOCH             ITHERM         OFF         [  0]    ***   
       TOL_CHOLESK          ITOLCH          10D-  4             ***   
       TRANGRAD             IRESRM         OFF         [  0]    ***   
       TRANS_INV            ITRAIN         USE         [  0]    ***   
       TREAT_PERT           ITREAT         SIMULTANEOUS[  0]    ***   
       TRIP_ALGORI          ITRALG         NORMAL      [  0]    ***   
       UIJ_THRESHO          IUIJTH              1               ***   
       UNITS                IUNITS         BOHR        [  1]    ***   
       UNOS                 IUNOS          OFF         [  0]    ***   
       UPDATE_HESS          IHUPDT         ON          [  1]    ***   
       VIBPHASE             ISETPH         STANDARD    [  0]    ***   
       VIBRATION            IVIB           NO          [  0]    ***   
       VIB_ALGORIT          IGEALG         STANDARD    [  0]    ***   
       VNATORB              IVNORB         OFF         [  0]    ***   
       VTRAN                IVTRAN         FULL/PARTIAL[  0]    ***   
       XFIELD               IXEFLD              0             x 10-6  
       XFORM_TOL            IXFTOL          10D- 11             ***   
       YFIELD               IYEFLD              0             x 10-6  
       ZFIELD               IZEFLD              0             x 10-6  
       ZSCALE_EXP           IZEXPS         OFF         [  0]    ***   
    -------------------------------------------------------------------
  @GETXYZ-I,     3 atoms read from ZMAT.
   Rotational constants (in cm-1): 
          8.8788126205            12.8676448772            28.6423194512
   Rotational constants (in MHz): 
     266180.1432538475        385762.3426834971        858675.2554074005
********************************************************************************
   The full molecular point group is C2v .
   The largest Abelian subgroup of the full molecular point group is C2v .
   The computational point group is C2v .
********************************************************************************


 ----------------------------------------------------------------
         Coordinates used in calculation (QCOMP) 
 ----------------------------------------------------------------
 Z-matrix   Atomic            Coordinates (in bohr)
  Symbol    Number           X              Y              Z
 ----------------------------------------------------------------
     H         1         0.00000000    -1.52349184    -0.96230529
     O         8         0.00000000     0.00000000     0.12126796
     H         1         0.00000000     1.52349184    -0.96230529
 ----------------------------------------------------------------
 
   Interatomic distance matrix (Angstroms) 
 
                 H             O             H    
                [ 1]        [ 2]        [ 3]
  H    [ 1]     0.00000
  O    [ 2]     0.98931     0.00000
  H    [ 3]     1.61239     0.98931     0.00000
 rotcon2
   Rotational constants (in cm-1): 
          8.8788126205            28.6423194512            12.8676448772
   Rotational constants (in MHz): 
     266180.1432538475        858675.2554074005        385762.3426834971
  There is   1 frozen-core orbital.
  There are   92 basis functions.
 @GEOPT-W, Archive file not created for single-point calculation.
 @CHECKOUT-I, Total execution time (CPU/WALL):        0.13/       0.18 seconds.
--executable xjoda finished with status     0 in        0.21 seconds (walltime).
 --invoking executable--
/home/qc/cfour_v2.1_intel_2017_eland2/bin/xvmol
 SERIAL VERSION OF MOLECULE STARTED
********************************************************************************
                    INPUT FROM MOL FILE
********************************************************************************
INTGRL        1    0    1    0    0    0    0    0    0                         
         *** CFOUR Program System (Release V0.1) ***                            
h2o AUG-PVTZ CC3                                                                
    2    2 X  Y       0.10E-08              0    0                              
   9999.00      3.00                                                            
          1.00000000    1    3    1    1    1                                   
H #1   0.000000000000000  -1.523491843100000  -0.962305289288759                
    6    4                                                                      
   33.8700000000000       6.068000000000000E-003  0.000000000000000E+000        
  0.000000000000000E+000  0.000000000000000E+000                                
   5.09500000000000       4.530800000000000E-002  0.000000000000000E+000        
  0.000000000000000E+000  0.000000000000000E+000                                
   1.15900000000000       0.202822000000000       0.000000000000000E+000        
  0.000000000000000E+000  0.000000000000000E+000                                
  0.325800000000000       0.503903000000000        1.00000000000000             
  0.000000000000000E+000  0.000000000000000E+000                                
  0.102700000000000       0.383421000000000       0.000000000000000E+000        
   1.00000000000000       0.000000000000000E+000                                
  2.526000000000000E-002  0.000000000000000E+000  0.000000000000000E+000        
  0.000000000000000E+000   1.00000000000000                                     
    3    3                                                                      
   1.40700000000000        1.00000000000000       0.000000000000000E+000        
  0.000000000000000E+000                                                        
  0.388000000000000       0.000000000000000E+000   1.00000000000000             
  0.000000000000000E+000                                                        
  0.102000000000000       0.000000000000000E+000  0.000000000000000E+000        
   1.00000000000000                                                             
    2    2                                                                      
   1.05700000000000        1.00000000000000       0.000000000000000E+000        
  0.247000000000000       0.000000000000000E+000   1.00000000000000             
          8.00000000    1    4    1    1    1    1                              
O #2   0.000000000000000   0.000000000000000   0.121267963511241                
   11    5                                                                      
   15330.0000000000       5.080000000000000E-004 -1.150000000000000E-004        
  0.000000000000000E+000  0.000000000000000E+000  0.000000000000000E+000        
   2299.00000000000       3.929000000000000E-003 -8.950000000000000E-004        
  0.000000000000000E+000  0.000000000000000E+000  0.000000000000000E+000        
   522.400000000000       2.024300000000000E-002 -4.636000000000000E-003        
  0.000000000000000E+000  0.000000000000000E+000  0.000000000000000E+000        
   147.300000000000       7.918100000000000E-002 -1.872400000000000E-002        
  0.000000000000000E+000  0.000000000000000E+000  0.000000000000000E+000        
   47.5500000000000       0.230687000000000      -5.846300000000000E-002        
  0.000000000000000E+000  0.000000000000000E+000  0.000000000000000E+000        
   16.7600000000000       0.433118000000000      -0.136463000000000             
  0.000000000000000E+000  0.000000000000000E+000  0.000000000000000E+000        
   6.20700000000000       0.350260000000000      -0.175740000000000             
  0.000000000000000E+000  0.000000000000000E+000  0.000000000000000E+000        
   1.75200000000000       4.272800000000000E-002  0.160934000000000             
   1.00000000000000       0.000000000000000E+000  0.000000000000000E+000        
  0.688200000000000      -8.154000000000000E-003  0.603418000000000             
  0.000000000000000E+000  0.000000000000000E+000  0.000000000000000E+000        
  0.238400000000000       2.381000000000000E-003  0.378765000000000             
  0.000000000000000E+000   1.00000000000000       0.000000000000000E+000        
  7.376000000000001E-002  0.000000000000000E+000  0.000000000000000E+000        
  0.000000000000000E+000  0.000000000000000E+000   1.00000000000000             
    6    4                                                                      
   34.4600000000000       1.592800000000000E-002  0.000000000000000E+000        
  0.000000000000000E+000  0.000000000000000E+000                                
   7.74900000000000       9.974000000000000E-002  0.000000000000000E+000        
  0.000000000000000E+000  0.000000000000000E+000                                
   2.28000000000000       0.310492000000000       0.000000000000000E+000        
  0.000000000000000E+000  0.000000000000000E+000                                
  0.715600000000000       0.491026000000000        1.00000000000000             
  0.000000000000000E+000  0.000000000000000E+000                                
  0.214000000000000       0.336337000000000       0.000000000000000E+000        
   1.00000000000000       0.000000000000000E+000                                
  5.974000000000000E-002  0.000000000000000E+000  0.000000000000000E+000        
  0.000000000000000E+000   1.00000000000000                                     
    3    3                                                                      
   2.31400000000000        1.00000000000000       0.000000000000000E+000        
  0.000000000000000E+000                                                        
  0.645000000000000       0.000000000000000E+000   1.00000000000000             
  0.000000000000000E+000                                                        
  0.214000000000000       0.000000000000000E+000  0.000000000000000E+000        
   1.00000000000000                                                             
    2    2                                                                      
   1.42800000000000        1.00000000000000       0.000000000000000E+000        
  0.500000000000000       0.000000000000000E+000   1.00000000000000             
FINISH                                                                          
 
********************************************************************************
 ONE- AND TWO-ELECTRON INTEGRALS OVER SYMMETRY-ADAPTED AOS ARE CALCULATED.

  SPHERICAL HARMONICS ARE USED.
  
  INTEGRALS LESS THAN  0.10E-13 ARE NEGLECTED.

  NUCLEAR REPULSION ENERGY :    8.8864746191 A.U.
  @MOLECU-I, ONE ELECTRON INTEGRALS (CPU/WALL):        0.02/       0.02 SECONDS.
  @TWOEL-I,     262932 INTEGRALS OF SYMMETRY TYPE  I I I I
  @TWOEL-I,     865293 INTEGRALS OF SYMMETRY TYPE  I J I J
  @TWOEL-I,     466389 INTEGRALS OF SYMMETRY TYPE  I I J J
  @TWOEL-I,     575256 INTEGRALS OF SYMMETRY TYPE  I J K L
  @TWOEL-I, TOTAL NUMBER OF 2-E INTEGRALS    2169870.
  @MOLECU-I, TWO ELECTRON INTEGRALS (CPU/WALL):        0.88/       0.88 SECONDS.
 @CHECKOUT-I, Total execution time (CPU/WALL):        0.90/       0.91 seconds.

OMP_NUM_THREADS not specified; defaulting to 1
Running with 1 threads/proc

--executable xvmol finished with status     0 in        0.94 seconds (walltime).
 --invoking executable--
/home/qc/cfour_v2.1_intel_2017_eland2/bin/xvmol2ja
 @GETMEM-I,  Allocated   30517 MB of main memory.
 @CHECKOUT-I, Total execution time (CPU/WALL):        0.02/       0.03 seconds.
--executable xvmol2ja finished with status     0 in        0.06 seconds (walltime).
 --invoking executable--
/home/qc/cfour_v2.1_intel_2017_eland2/bin/xvscf
  There are   92 functions in the AO basis.

  There are 4 irreducible representations.

       Irrep        # of functions
         1                 35
         2                 18
         3                 27
         4                 12


  Parameters for SCF calculation: 
        SCF reference function:  RHF  
  Maximum number of iterations:  150
     Full symmetry point group: C2v 
     Computational point group: C2v 
        Initial density matrix: MOREAD                 
     SCF convergence tolerance: 10**(- 9)
  DIIS convergence acceleration:  ON
          Latest start for DIIS:   8
                     DIIS order:   6

  Memory information:     401180 words required.
  Fock matrices are constructed from AO integral file.
 @GETMEM-I,  Allocated       3 MB of main memory.
  Initialization and symmetry analysis required      0.001 seconds.

  @INITGES-I, Occupancies from core Hamiltonian:

          Alpha population by irrep:   3    1    1    0
           Beta population by irrep:   3    1    1    0


 total no. of electrons in initial guess :  0.000000000000000E+000
  --------------------------------------------------------------------
  Iteration         Total Energy            Largest Density Difference
  --------------------------------------------------------------------
       0             8.886474619148530              0.0000000000D+00
   current occupation vector 
     3  1  1  0
     3  1  1  0
       1           -61.262293845801779              0.1229959726D+02
   current occupation vector 
     3  1  1  0
     3  1  1  0
       2           -63.685061181775481              0.2993279091D+02
   current occupation vector 
     3  0  2  0
     3  0  2  0
       3           -70.822547435001297              0.2993300107D+02
   current occupation vector 
     3  1  1  0
     3  1  1  0
       4           -67.824643132075792              0.2560454261D+02
   current occupation vector 
     3  0  2  0
     3  0  2  0
       5           -72.195746546631895              0.2560408885D+02
   current occupation vector 
     3  1  1  0
     3  1  1  0
       6           -68.798579758427763              0.2400273888D+02
   current occupation vector 
     3  0  2  0
     3  0  2  0
       7           -72.567791893877228              0.2400288347D+02
   current occupation vector 
     3  1  1  0
     3  1  1  0
       8           -69.063354624183546              0.2360281772D+02
   current occupation vector 
     3  0  2  0
     3  0  2  0
       9           -75.777673316132507              0.2360374904D+02
   current occupation vector 
     3  1  1  0
     3  1  1  0
      10           -76.046522505302107              0.5149374865D+00
   current occupation vector 
     3  1  1  0
     3  1  1  0
      11           -76.055975156345895              0.8417233709D-01
   current occupation vector 
     3  1  1  0
     3  1  1  0
      12           -76.056094554089526              0.1127193471D-01
   current occupation vector 
     3  1  1  0
     3  1  1  0
      13           -76.056105285329849              0.3776446842D-02
   current occupation vector 
     3  1  1  0
     3  1  1  0
      14           -76.056107052224831              0.2237498577D-02
   current occupation vector 
     3  1  1  0
     3  1  1  0
      15           -76.056107084105790              0.3396161070D-03
   current occupation vector 
     3  1  1  0
     3  1  1  0
      16           -76.056107084643259              0.2795330687D-04
   current occupation vector 
     3  1  1  0
     3  1  1  0
      17           -76.056107084705928              0.1438129122D-04
   current occupation vector 
     3  1  1  0
     3  1  1  0
      18           -76.056107084707705              0.2767042943D-05
   current occupation vector 
     3  1  1  0
     3  1  1  0
      19           -76.056107084707833              0.3116719758D-06
   current occupation vector 
     3  1  1  0
     3  1  1  0
      20           -76.056107084708287              0.3270214025D-07
   current occupation vector 
     3  1  1  0
     3  1  1  0
      21           -76.056107084707534              0.7386544820D-08
   current occupation vector 
     3  1  1  0
     3  1  1  0

  SCF has converged.

 Density matrix saved to file den.dat
 total electron number:   10.0000000000000     
     E(SCF)=       -76.056107084707918              0.9043192029D-09

  Eigenvector printing suppressed.

 @PUTMOS-I, Writing converged MOs to NEWMOS. 
 @PUTMOS-I, Symmetry   1 Full Blocks  8 Partial Blocksize   3
 @PUTMOS-I, Symmetry   2 Full Blocks  4 Partial Blocksize   2
 @PUTMOS-I, Symmetry   3 Full Blocks  6 Partial Blocksize   3
 @PUTMOS-I, Symmetry   4 Full Blocks  3 Partial Blocksize   0
 @PUTFOCK-I, Writing converged Fock matrix to NEWFOCK. 
 @PUTFOCK-I, Symmetry   1 Full Blocks  8 Partial Blocksize   3
 @PUTFOCK-I, Symmetry   2 Full Blocks  4 Partial Blocksize   2
 @PUTFOCK-I, Symmetry   3 Full Blocks  6 Partial Blocksize   3
 @PUTFOCK-I, Symmetry   4 Full Blocks  3 Partial Blocksize   0


 
  ORBITAL EIGENVALUES (ALPHA)  (1H = 27.2113834 eV)

       MO #        E(hartree)               E(eV)           FULLSYM    COMPSYM
       ----   --------------------   --------------------   -------   ---------
    1     1         -20.5705073866        -559.7519632295      A1        A1 (1)
    2     2          -1.3345783038         -36.3157219013      A1        A1 (1)
    3    54          -0.7087790082         -19.2868573367      B2        B2 (3)
    4     3          -0.5699204203         -15.5083230635      A1        A1 (1)
    5    36          -0.5063357846         -13.7780971640      B1        B1 (2)
  +++++++++++++++++++++++++++++++++++++++++++++++++++++++++++++++++++++++++++++
    6     4           0.0292888729           0.7969907493      A1        A1 (1)
    7    55           0.0472565273           1.2859154823      B2        B2 (3)
    8     5           0.1364187722           3.7121435143      A1        A1 (1)
    9    37           0.1593787972           4.3369175577      B1        B1 (2)
   10     6           0.1727756633           4.7014648171      A1        A1 (1)
   11    56           0.1818266035           4.9477534195      B2        B2 (3)
   12    57           0.2262613397           6.1568840635      B2        B2 (3)
   13     7           0.2429531264           6.6110906719      A1        A1 (1)
   14    81           0.2632457499           7.1632810283      A2        A2 (4)
   15    38           0.3040260373           8.2729690637      B1        B1 (2)
   16     8           0.3125376273           8.5045812037      A1        A1 (1)
   17    58           0.3642707582           9.9123112626      B2        B2 (3)
   18     9           0.4307851727          11.7222604984      A1        A1 (1)
   19    59           0.4608742488          12.5410258842      B2        B2 (3)
   20    60           0.6009351054          16.3522755518      B2        B2 (3)
   21    10           0.6500955438          17.6899990879      A1        A1 (1)
   22    11           0.7108599629          19.3434829952      A1        A1 (1)
   23    82           0.7193295657          19.5739526038      A2        A2 (4)
   24    39           0.7320494105          19.9200771761      B1        B1 (2)
   25    12           0.8166199739          22.2213592006      A1        A1 (1)
   26    40           0.8401144125          22.8606753779      B1        B1 (2)
   27    13           0.8964006067          24.3923005898      A1        A1 (1)
   28    61           0.9057954889          24.6479483293      B2        B2 (3)
   29    83           0.9160317022          24.9264898546      A2        A2 (4)
   30    62           0.9262421889          25.2043313234      B2        B2 (3)
   31    41           0.9290728380          25.2813572003      B1        B1 (2)
   32    14           0.9697095651          26.3871387630      A1        A1 (1)
   33    15           1.0116086027          27.5272695390      A1        A1 (1)
   34    63           1.0348266862          28.1590657117      B2        B2 (3)
   35    42           1.0803025649          29.3965272807      B1        B1 (2)
   36    64           1.1075906389          30.1390735243      B2        B2 (3)
   37    84           1.1633567389          31.6565462530      A2        A2 (4)
   38    16           1.1642096427          31.6797549459      A1        A1 (1)
   39    65           1.2712700975          34.5930180274      B2        B2 (3)
   40    85           1.5052023583          40.9586384654      A2        A2 (4)
   41    17           1.5764045746          42.8961492734      A1        A1 (1)
   42    43           1.5785039267          42.9532755485      B1        B1 (2)
   43    66           1.7504403388          47.6319031778      B2        B2 (3)
   44    18           1.8111574242          49.2840990679      A1        A1 (1)
   45    67           1.9656926902          53.4892174385      B2        B2 (3)
   46    19           2.0829631200          56.6803080668      A1        A1 (1)
   47    44           2.2547897678          61.3559488583      B1        B1 (2)
   48    86           2.3106164195          62.8750692806      A2        A2 (4)
   49    20           2.3242895705          63.2471346342      A1        A1 (1)
   50    21           2.4023527560          65.3713419042      A1        A1 (1)
   51    45           2.4040240255          65.4168194611      B1        B1 (2)
   52    68           2.4388895939          66.3655598093      B2        B2 (3)
   53    22           2.4829887905          67.5655599574      A1        A1 (1)
   54    69           2.7111765470          73.7748644868      B2        B2 (3)
   55    46           2.7117679044          73.7909561378      B1        B1 (2)
   56    23           2.7298644215          74.2833874029      A1        A1 (1)
   57    70           2.8585073647          77.7839398517      B2        B2 (3)
   58    87           2.8645557268          77.9485241536      A2        A2 (4)
   59    71           3.5853407841          97.5620826958      B2        B2 (3)
   60    24           3.7251718180         101.3670785692      A1        A1 (1)
   61    88           3.9817842769         108.3498585747      A2        A2 (4)
   62    47           4.0537946757         110.3093611444      B1        B1 (2)
   63    25           4.1830223231         113.8258242033      A1        A1 (1)
   64    72           4.1834347082         113.8370457747      B2        B2 (3)
   65    48           4.3120502297         117.3368520391      B1        B1 (2)
   66    89           4.3689471601         118.8850962269      A2        A2 (4)
   67    49           4.3749628055         119.0487902614      B1        B1 (2)
   68    26           4.4485921673         121.0523470559      A1        A1 (1)
   69    73           4.4638128355         121.4665224924      B2        B2 (3)
   70    27           4.6549644731         126.6680229922      A1        A1 (1)
   71    74           4.7206186658         128.4545644016      B2        B2 (3)
   72    75           5.0376222739         137.0806711183      B2        B2 (3)
   73    90           5.0906810356         138.5244734271      A2        A2 (4)
   74    28           5.2034912564         141.5941955976      A1        A1 (1)
   75    76           5.2611920359         143.1643136291      B2        B2 (3)
   76    50           5.4099609175         147.2125207044      B1        B1 (2)
   77    29           5.6676847718         154.2255433168      A1        A1 (1)
   78    30           6.0732323376         165.2610536154      A1        A1 (1)
   79    77           6.5491216442         178.2106599929      B2        B2 (3)
   80    51           6.6969747847         182.2339484853      B1        B1 (2)
   81    31           6.8010525412         185.0660482228      A1        A1 (1)
   82    52           7.1122350294         193.5337542162      B1        B1 (2)
   83    91           7.2225898530         196.5366616296      A2        A2 (4)
   84    53           7.2242669145         196.5822967935      B1        B1 (2)
   85    32           7.2799180303         198.0966406422      A1        A1 (1)
   86    78           7.3212040442         199.2200901957      B2        B2 (3)
   87    92           7.3634848211         200.3706086259      A2        A2 (4)
   88    33           7.4617243668         203.0438425696      A1        A1 (1)
   89    79           7.7941190106         212.0887606622      B2        B2 (3)
   90    34           7.9053647394         215.1159108418      A1        A1 (1)
   91    80           8.6085371928         234.2502060676      B2        B2 (3)
   92    35          14.9203656856         406.0037911402      A1        A1 (1)


  VSCF finished.

 @CHECKOUT-I, Total execution time (CPU/WALL):        0.80/       0.55 seconds.
--executable xvscf finished with status     0 in        0.58 seconds (walltime).
 --invoking executable--
/home/qc/cfour_v2.1_intel_2017_eland2/bin/xvtran
 @GETMEM-I,  Allocated   30517 MB of main memory.
  Full RHF integral transformation
  The following   1 MOs will be dropped:
    1
  There are  91 active molecular orbitals.
  Transformation of IIII integrals :
  1 pass through the AO integral file was required.
      262932 AO integrals were read.
      266728 MO integrals were written to HF2.
  Transformation of IIJJ integrals :
  1 pass through the AO integral file was required.
      466389 AO integrals were read.
      480525 MO integrals were written to HF2.
  Transformation of IJIJ integrals :
  1 pass through the AO integral file was required.
      865293 AO integrals were read.
      887262 MO integrals were written to HF2.
  Transformation of IJKL integrals :
  1 pass through the AO integral file was required.
      575256 AO integrals were read.
      594864 MO integrals were written to HF2.
  Summary of active molecular orbitals: 
------------------------------------------------------------------------
 
  Index      Eigenvalue    Symmetry    Index      Eigenvalue    Symmetry
------------------------------------------------------------------------
     1        -1.3345783        1        47         4.0537947        2
     2        -0.5699204        1        48         4.3120502        2
     3        -0.5063358        2        49         4.3749628        2
     4        -0.7087790        3        50         5.4099609        2
     5         0.0292889        1        51         6.6969748        2
     6         0.1364188        1        52         7.1122350        2
     7         0.1727757        1        53         7.2242669        2
     8         0.2429531        1        54         0.0472565        3
     9         0.3125376        1        55         0.1818266        3
    10         0.4307852        1        56         0.2262613        3
    11         0.6500955        1        57         0.3642708        3
    12         0.7108600        1        58         0.4608742        3
    13         0.8166200        1        59         0.6009351        3
    14         0.8964006        1        60         0.9057955        3
    15         0.9697096        1        61         0.9262422        3
    16         1.0116086        1        62         1.0348267        3
    17         1.1642096        1        63         1.1075906        3
    18         1.5764046        1        64         1.2712701        3
    19         1.8111574        1        65         1.7504403        3
    20         2.0829631        1        66         1.9656927        3
    21         2.3242896        1        67         2.4388896        3
    22         2.4023528        1        68         2.7111765        3
    23         2.4829888        1        69         2.8585074        3
    24         2.7298644        1        70         3.5853408        3
    25         3.7251718        1        71         4.1834347        3
    26         4.1830223        1        72         4.4638128        3
    27         4.4485922        1        73         4.7206187        3
    28         4.6549645        1        74         5.0376223        3
    29         5.2034913        1        75         5.2611920        3
    30         5.6676848        1        76         6.5491216        3
    31         6.0732323        1        77         7.3212040        3
    32         6.8010525        1        78         7.7941190        3
    33         7.2799180        1        79         8.6085372        3
    34         7.4617244        1        80         0.2632457        4
    35         7.9053647        1        81         0.7193296        4
    36        14.9203657        1        82         0.9160317        4
    37         0.1593788        2        83         1.1633567        4
    38         0.3040260        2        84         1.5052024        4
    39         0.7320494        2        85         2.3106164        4
    40         0.8401144        2        86         2.8645557        4
    41         0.9290728        2        87         3.9817843        4
    42         1.0803026        2        88         4.3689472        4
    43         1.5785039        2        89         5.0906810        4
    44         2.2547898        2        90         7.2225899        4
    45         2.4040240        2        91         7.3634848        4
    46         2.7117679        2
------------------------------------------------------------------------
  -1.33457830377395      -0.569920420273005      -0.506335784604555     
 -0.708779008153667       2.928887287921875E-002  0.136418772236154     
  0.172775663331497       0.242953126442892       0.312537627311512     
  0.430785172737249       0.650095543761085       0.710859962937535     
  0.816619973851224       0.896400606732714       0.969709565113782     
   1.01160860270784        1.16420964271482        1.57640457461706     
   1.81115742420942        2.08296312001374        2.32428957045290     
   2.40235275595048        2.48298879054482        2.72986442147982     
   3.72517181795470        4.18302232305065        4.44859216734808     
   4.65496447314614        5.20349125644330        5.66768477183798     
   6.07323233758861        6.80105254122427        7.27991803026971     
   7.46172436677929        7.90536473944388        14.9203656856411     
  0.159378797245956       0.304026037269516       0.732049410473388     
  0.840114412482232       0.929072837960489        1.08030256487235     
   1.57850392672284        2.25478976781098        2.40402402551324     
   2.71176790437532        4.05379467566617        4.31205022965177     
   4.37496280550807        5.40996091747331        6.69697478465281     
   7.11223502940888        7.22426691446687       4.725652729297386E-002
  0.181826603474054       0.226261339710910       0.364270758193618     
  0.460874248834086       0.600935105407992       0.905795488858367     
  0.926242188899350        1.03482668623595        1.10759063885988     
   1.27127009747779        1.75044033879666        1.96569269015879     
   2.43888959387851        2.71117654704898        2.85850736466842     
   3.58534078409874        4.18343470823585        4.46381283549025     
   4.72061866584766        5.03762227385612        5.26119203587032     
   6.54912164417699        7.32120404417406        7.79411901058454     
   8.60853719284215       0.263245749877617       0.719329565722357     
  0.916031702180264        1.16335673889404        1.50520235826713     
   2.31061641947336        2.86455572683598        3.98178427689733     
   4.36894716006590        5.09068103561126        7.22258985295142     
   7.36348482105715     
 @CHECKOUT-I, Total execution time (CPU/WALL):        1.04/       0.56 seconds.
--executable xvtran finished with status     0 in        0.59 seconds (walltime).
 --invoking executable--
/home/qc/cfour_v2.1_intel_2017_eland2/bin/xintprc
 @GETMEM-I,  Allocated   30517 MB of main memory.
  @GMOIAA-I, Processing MO integrals for spin case AA.
  @GMOIAA-I, Generation of integral list completed.
                      TYPE                NUMBER
                      ----               --------
                      PPPP               1862118
                      PPPH                340336
                      PPHH                 15793
                      PHPH                 10160
                      PHHH                   950
                      HHHH                    22

                     TOTAL               2229379

  @FORMT2-I, Second-order MP correlation energies:
            ------------------------------------------------
            E(SCF)                  =    -76.056107084708 a.u.
            E2(AA)                  =     -0.032825124263 a.u.
            E2(AB)                  =     -0.204968867498 a.u.
            E2(TOT)                 =     -0.270619116024 a.u.
            Total MP2 energy        =    -76.326726200732 a.u.
            ------------------------------------------------
   Largest T2 amplitudes for spin case AB:
       _       _                 _       _                 _       _
   i   j   a   b             i   j   a   b             i   j   a   b
-----------------------------------------------------------------------------
[  4   4  58  58]-0.02076 [  2   2  14  14]-0.01927 [  3   3  42  42]-0.01584
[  3   3  41  41]-0.01447 [  4   2  58  14]-0.01386 [  2   4  14  58]-0.01386
[  4   4  62  58]-0.01361 [  4   4  58  62]-0.01361 [  3   3  42  41]-0.01310
[  3   3  41  42]-0.01310 [  3   2  41  14]-0.01285 [  2   3  14  41]-0.01285
[  4   4  59  59]-0.01277 [  4   4  58  55]-0.01256 [  4   4  55  58]-0.01256
-----------------------------------------------------------------------------
   Norm of T2AB vector (    31238 symmetry allowed elements):  0.2209372025.
-----------------------------------------------------------------------------
 @CHECKOUT-I, Total execution time (CPU/WALL):        0.60/       0.42 seconds.
--executable xintprc finished with status     0 in        0.45 seconds (walltime).
  calling xvcc 
 --invoking executable--
/home/qc/cfour_v2.1_intel_2017_eland2/bin/xvcc
 @GETMEM-I,  Allocated   30517 MB of main memory.
   CC3 energy will be calculated.
   The total correlation energy is -0.270619116024 a.u.
   The total correlation energy is -0.278402671120 a.u.
  Convergence information after     1 iterations: 
  Largest element of residual vector :  0.10032845E-01.
  Largest element of DIIS residual   :  0.10032845E-01.
   The total correlation energy is -0.283095240009 a.u.
  Convergence information after     2 iterations: 
  Largest element of residual vector :  0.15642897E-02.
  Largest element of DIIS residual   : -0.17440157E-02.
   The total correlation energy is -0.283985322983 a.u.
  Convergence information after     3 iterations: 
  Largest element of residual vector :  0.17876249E-02.
  Largest element of DIIS residual   :  0.11252936E-02.
   The total correlation energy is -0.284459222764 a.u.
  Convergence information after     4 iterations: 
  Largest element of residual vector :  0.25629119E-03.
  Largest element of DIIS residual   : -0.13552418E-03.
   The total correlation energy is -0.284494135126 a.u.
  Convergence information after     5 iterations: 
  Largest element of residual vector :  0.14511453E-03.
  Largest element of DIIS residual   :  0.67074877E-04.
   The total correlation energy is -0.284497279256 a.u.
  Convergence information after     6 iterations: 
  Largest element of residual vector :  0.32140963E-04.
  Largest element of DIIS residual   :  0.23297562E-04.
   The total correlation energy is -0.284496576694 a.u.
  Convergence information after     7 iterations: 
  Largest element of residual vector :  0.16929870E-04.
  Largest element of DIIS residual   :  0.98347959E-05.
   The total correlation energy is -0.284496507070 a.u.
  Convergence information after     8 iterations: 
  Largest element of residual vector :  0.48204730E-05.
  Largest element of DIIS residual   :  0.26224328E-05.
   The total correlation energy is -0.284496728127 a.u.
  Convergence information after     9 iterations: 
  Largest element of residual vector :  0.17744711E-05.
  Largest element of DIIS residual   : -0.12868476E-05.
   The total correlation energy is -0.284496755675 a.u.
  Convergence information after    10 iterations: 
  Largest element of residual vector :  0.58662820E-06.
  Largest element of DIIS residual   :  0.35007491E-06.
   The total correlation energy is -0.284496768901 a.u.
  Convergence information after    11 iterations: 
  Largest element of residual vector : -0.19401113E-06.
  Largest element of DIIS residual   : -0.87742125E-07.
   The total correlation energy is -0.284496771502 a.u.
  Convergence information after    12 iterations: 
  Largest element of residual vector :  0.56771690E-07.
  Largest element of DIIS residual   :  0.25137365E-07.
   The total correlation energy is -0.284496772116 a.u.
  Convergence information after    13 iterations: 
  Largest element of residual vector :  0.10742126E-07.
  Largest element of DIIS residual   :  0.75464478E-08.
   The total correlation energy is -0.284496772473 a.u.
  Convergence information after    14 iterations: 
  Largest element of residual vector :  0.66875010E-08.
  Largest element of DIIS residual   :  0.32842918E-08.
   The total correlation energy is -0.284496772694 a.u.
  Convergence information after    15 iterations: 
  Largest element of residual vector :  0.21729735E-08.
  Largest element of DIIS residual   :  0.12547945E-08.
   The total correlation energy is -0.284496772738 a.u.
  Convergence information after    16 iterations: 
  Largest element of residual vector :  0.90319188E-09.
  Largest element of DIIS residual   :  0.29306361E-09.
  Amplitude equations converged in    16iterations.
   The total correlation energy is -0.284496772746 a.u.
   The CC iterations have converged.

   Largest T1 amplitudes for spin case AA:
   i       a                 i       a                 i       a    
-----------------------------------------------------------------------------
[  3      37    ] 0.01486 [  3      38    ]-0.01249 [  2       6    ] 0.00869
[  2       9    ] 0.00778 [  4      66    ]-0.00527 [  3      47    ]-0.00390
[  2       5    ] 0.00374 [  3      40    ] 0.00369 [  4      62    ]-0.00336
[  4      73    ]-0.00335 [  2      20    ]-0.00329 [  2      28    ]-0.00328
[  3      41    ] 0.00286 [  1      14    ]-0.00270 [  2      13    ] 0.00261
-----------------------------------------------------------------------------
   Norm of T1AA vector (      107 symmetry allowed elements):  0.0276668998.
-----------------------------------------------------------------------------
   Largest T2 amplitudes for spin case AB:
       _       _                 _       _                 _       _
   i   j   a   b             i   j   a   b             i   j   a   b
-----------------------------------------------------------------------------
[  4   4  58  58]-0.02384 [  2   2  14  14]-0.02110 [  3   3  42  42]-0.01678
[  4   4  62  58]-0.01571 [  4   4  58  62]-0.01571 [  3   3  41  41]-0.01550
[  4   4  59  59]-0.01514 [  3   3  37  37]-0.01446 [  2   2  59  59]-0.01442
[  3   3  42  41]-0.01431 [  3   3  41  42]-0.01431 [  4   4  58  55]-0.01412
[  4   4  55  58]-0.01412 [  4   2  58  14]-0.01392 [  2   4  14  58]-0.01392
-----------------------------------------------------------------------------
   Norm of T2AB vector (    31238 symmetry allowed elements):  0.2482207606.
-----------------------------------------------------------------------------
       Summary of iterative solution of CC equations 
      -----------------------------------------------------------
                       Correlation           Total
       Iteration         Energy              Energy
      -----------------------------------------------------------
            0        -0.270619116024     -76.326726200732  DIIS 
            1        -0.278402671120     -76.334509755827  DIIS 
            2        -0.283095240009     -76.339202324717  DIIS 
            3        -0.283985322983     -76.340092407691  DIIS 
            4        -0.284459222764     -76.340566307472  DIIS 
            5        -0.284494135126     -76.340601219834  DIIS 
            6        -0.284497279256     -76.340604363964  DIIS 
            7        -0.284496576694     -76.340603661402  DIIS 
            8        -0.284496507070     -76.340603591777  DIIS 
            9        -0.284496728127     -76.340603812835  DIIS 
           10        -0.284496755675     -76.340603840383  DIIS 
           11        -0.284496768901     -76.340603853609  DIIS 
           12        -0.284496771502     -76.340603856210  DIIS 
           13        -0.284496772116     -76.340603856824  DIIS 
           14        -0.284496772473     -76.340603857181  DIIS 
           15        -0.284496772694     -76.340603857402  DIIS 
           16        -0.284496772746     -76.340603857454  DIIS 
      -----------------------------------------------------------
      A miracle has come to pass. The CC iterations have converged.
      The reference energy is       -76.05610708470792 a.u.
      The correlation energy is      -0.28449677274565 a.u.
      The total energy is           -76.34060385745357 a.u.
 @CHECKOUT-I, Total execution time (CPU/WALL):       29.20/      14.62 seconds.
--executable xvcc finished with status     0 in       14.68 seconds (walltime).
 --invoking executable--
/home/qc/cfour_v2.1_intel_2017_eland2/bin/xlambda
 @GETMEM-I,  Allocated   30517 MB of main memory.
 Hbar is calculated for a CCSD wave function.
 Calculation of Hbar completed.
 @CHECKOUT-I, Total execution time (CPU/WALL):        0.51/       0.28 seconds.
--executable xlambda finished with status     0 in        0.31 seconds (walltime).
 --invoking executable--
/home/qc/cfour_v2.1_intel_2017_eland2/bin/xvip
 @GETMEM-I,  Allocated   30517 MB of main memory.
 IPs are calculated using the EOMIP-CCSD method.
  Summary of active alpha molecular orbitals:
------------------------------------------------------------------------------
Orbital Symm. Eigenvalue  <xx>     <yy>     <zz>     <xy>     <xz>     <yz>
------------------------------------------------------------------------------
    1     1      -1.3346   0.000    0.000    0.000    0.000    0.000    0.000
    2     1      -0.5699   0.000    0.000    0.000    0.000    0.000    0.000
    3     2      -0.5063   0.000    0.000    0.000    0.000    0.000    0.000
    4     3      -0.7088   0.000    0.000    0.000    0.000    0.000    0.000
    5     1       0.0293   0.000    0.000    0.000    0.000    0.000    0.000
    6     1       0.1364   0.000    0.000    0.000    0.000    0.000    0.000
    7     1       0.1728   0.000    0.000    0.000    0.000    0.000    0.000
    8     1       0.2430   0.000    0.000    0.000    0.000    0.000    0.000
    9     1       0.3125   0.000    0.000    0.000    0.000    0.000    0.000
   10     1       0.4308   0.000    0.000    0.000    0.000    0.000    0.000
   11     1       0.6501   0.000    0.000    0.000    0.000    0.000    0.000
   12     1       0.7109   0.000    0.000    0.000    0.000    0.000    0.000
   13     1       0.8166   0.000    0.000    0.000    0.000    0.000    0.000
   14     1       0.8964   0.000    0.000    0.000    0.000    0.000    0.000
   15     1       0.9697   0.000    0.000    0.000    0.000    0.000    0.000
   16     1       1.0116   0.000    0.000    0.000    0.000    0.000    0.000
   17     1       1.1642   0.000    0.000    0.000    0.000    0.000    0.000
   18     1       1.5764   0.000    0.000    0.000    0.000    0.000    0.000
   19     1       1.8112   0.000    0.000    0.000    0.000    0.000    0.000
   20     1       2.0830   0.000    0.000    0.000    0.000    0.000    0.000
   21     1       2.3243   0.000    0.000    0.000    0.000    0.000    0.000
   22     1       2.4024   0.000    0.000    0.000    0.000    0.000    0.000
   23     1       2.4830   0.000    0.000    0.000    0.000    0.000    0.000
   24     1       2.7299   0.000    0.000    0.000    0.000    0.000    0.000
   25     1       3.7252   0.000    0.000    0.000    0.000    0.000    0.000
   26     1       4.1830   0.000    0.000    0.000    0.000    0.000    0.000
   27     1       4.4486   0.000    0.000    0.000    0.000    0.000    0.000
   28     1       4.6550   0.000    0.000    0.000    0.000    0.000    0.000
   29     1       5.2035   0.000    0.000    0.000    0.000    0.000    0.000
   30     1       5.6677   0.000    0.000    0.000    0.000    0.000    0.000
   31     1       6.0732   0.000    0.000    0.000    0.000    0.000    0.000
   32     1       6.8011   0.000    0.000    0.000    0.000    0.000    0.000
   33     1       7.2799   0.000    0.000    0.000    0.000    0.000    0.000
   34     1       7.4617   0.000    0.000    0.000    0.000    0.000    0.000
   35     1       7.9054   0.000    0.000    0.000    0.000    0.000    0.000
   36     1      14.9204   0.000    0.000    0.000    0.000    0.000    0.000
   37     2       0.1594   0.000    0.000    0.000    0.000    0.000    0.000
   38     2       0.3040   0.000    0.000    0.000    0.000    0.000    0.000
   39     2       0.7320   0.000    0.000    0.000    0.000    0.000    0.000
   40     2       0.8401   0.000    0.000    0.000    0.000    0.000    0.000
   41     2       0.9291   0.000    0.000    0.000    0.000    0.000    0.000
   42     2       1.0803   0.000    0.000    0.000    0.000    0.000    0.000
   43     2       1.5785   0.000    0.000    0.000    0.000    0.000    0.000
   44     2       2.2548   0.000    0.000    0.000    0.000    0.000    0.000
   45     2       2.4040   0.000    0.000    0.000    0.000    0.000    0.000
   46     2       2.7118   0.000    0.000    0.000    0.000    0.000    0.000
   47     2       4.0538   0.000    0.000    0.000    0.000    0.000    0.000
   48     2       4.3121   0.000    0.000    0.000    0.000    0.000    0.000
   49     2       4.3750   0.000    0.000    0.000    0.000    0.000    0.000
   50     2       5.4100   0.000    0.000    0.000    0.000    0.000    0.000
   51     2       6.6970   0.000    0.000    0.000    0.000    0.000    0.000
   52     2       7.1122   0.000    0.000    0.000    0.000    0.000    0.000
   53     2       7.2243   0.000    0.000    0.000    0.000    0.000    0.000
   54     3       0.0473   0.000    0.000    0.000    0.000    0.000    0.000
   55     3       0.1818   0.000    0.000    0.000    0.000    0.000    0.000
   56     3       0.2263   0.000    0.000    0.000    0.000    0.000    0.000
   57     3       0.3643   0.000    0.000    0.000    0.000    0.000    0.000
   58     3       0.4609   0.000    0.000    0.000    0.000    0.000    0.000
   59     3       0.6009   0.000    0.000    0.000    0.000    0.000    0.000
   60     3       0.9058   0.000    0.000    0.000    0.000    0.000    0.000
   61     3       0.9262   0.000    0.000    0.000    0.000    0.000    0.000
   62     3       1.0348   0.000    0.000    0.000    0.000    0.000    0.000
   63     3       1.1076   0.000    0.000    0.000    0.000    0.000    0.000
   64     3       1.2713   0.000    0.000    0.000    0.000    0.000    0.000
   65     3       1.7504   0.000    0.000    0.000    0.000    0.000    0.000
   66     3       1.9657   0.000    0.000    0.000    0.000    0.000    0.000
   67     3       2.4389   0.000    0.000    0.000    0.000    0.000    0.000
   68     3       2.7112   0.000    0.000    0.000    0.000    0.000    0.000
   69     3       2.8585   0.000    0.000    0.000    0.000    0.000    0.000
   70     3       3.5853   0.000    0.000    0.000    0.000    0.000    0.000
   71     3       4.1834   0.000    0.000    0.000    0.000    0.000    0.000
   72     3       4.4638   0.000    0.000    0.000    0.000    0.000    0.000
   73     3       4.7206   0.000    0.000    0.000    0.000    0.000    0.000
   74     3       5.0376   0.000    0.000    0.000    0.000    0.000    0.000
   75     3       5.2612   0.000    0.000    0.000    0.000    0.000    0.000
   76     3       6.5491   0.000    0.000    0.000    0.000    0.000    0.000
   77     3       7.3212   0.000    0.000    0.000    0.000    0.000    0.000
   78     3       7.7941   0.000    0.000    0.000    0.000    0.000    0.000
   79     3       8.6085   0.000    0.000    0.000    0.000    0.000    0.000
   80     4       0.2632   0.000    0.000    0.000    0.000    0.000    0.000
   81     4       0.7193   0.000    0.000    0.000    0.000    0.000    0.000
   82     4       0.9160   0.000    0.000    0.000    0.000    0.000    0.000
   83     4       1.1634   0.000    0.000    0.000    0.000    0.000    0.000
   84     4       1.5052   0.000    0.000    0.000    0.000    0.000    0.000
   85     4       2.3106   0.000    0.000    0.000    0.000    0.000    0.000
   86     4       2.8646   0.000    0.000    0.000    0.000    0.000    0.000
   87     4       3.9818   0.000    0.000    0.000    0.000    0.000    0.000
   88     4       4.3689   0.000    0.000    0.000    0.000    0.000    0.000
   89     4       5.0907   0.000    0.000    0.000    0.000    0.000    0.000
   90     4       7.2226   0.000    0.000    0.000    0.000    0.000    0.000
   91     4       7.3635   0.000    0.000    0.000    0.000    0.000    0.000
------------------------------------------------------------------------------
  nsizec is                    331
  @DOEOMIP2-I, right-hand eigenvectors will be computed.
  Beginning symmetry block   2.   1 roots requested.
  1   1  0.5857067732D+00  0.1593789156D+02  0.0000000000D+00  0.4602346783D+00
  2   2  0.5286577509D+00  0.1438550875D+02  0.9945263673D+00  0.8880851907D-01
  3   3  0.5081832656D+00  0.1382836968D+02  0.9968477641D+00  0.2126167374D-01
  4   4  0.5072053072D+00  0.1380175808D+02  0.9998713969D+00  0.4114835138D-02
  L-O-C-K-I-N-G O-N R-O-O-T 
  5   5  0.5070981945D+00  0.1379884339D+02  0.9999966742D+00  0.1002727797D-02
  6   6  0.5070927986D+00  0.1379869656D+02  0.9999997861D+00  0.1772192677D-03
  7   7  0.5070929771D+00  0.1379870142D+02  0.9999999912D+00  0.4706840763D-04
  8   8  0.5070925513D+00  0.1379868983D+02  0.9999999995D+00  0.8529597978D-05
  9   9  0.5070926083D+00  0.1379869138D+02  0.1000000000D+01  0.2063289455D-05
 10  10  0.5070926006D+00  0.1379869117D+02  0.1000000000D+01  0.3895370346D-06
 11  11  0.5070926029D+00  0.1379869124D+02  0.1000000000D+01  0.6766532873D-07
 12  12  0.5070926028D+00  0.1379869123D+02  0.1000000000D+01  0.1163429091D-07
 13  13  0.5070926028D+00  0.1379869123D+02  0.1000000000D+01  0.2188185504D-08
 14  14  0.5070926028D+00  0.1379869123D+02  0.1000000000D+01  0.3619222515D-09
 15  15  0.5070926028D+00  0.1379869123D+02  0.1000000000D+01  0.7056870176D-10
  Converged eigenvalue:   0.507092602811249       a.u.
   Total EOMIP-CCSD electronic energy     -75.83351125464232 a.u.
          --------------------------------
             I    J    A       C(IJA)
          --------------------------------
              0    3    0    0.6978140653
              3    3   37   -0.0369775379
              3    3   41   -0.0312003827
              3    3   42   -0.0273054572
              4    3   58   -0.0271752421
              3    3   38    0.0266153694
              2    3   14   -0.0236546007
              2    3    6   -0.0224568314
              4    3   55   -0.0214656323
              2    3    9   -0.0203196455
              3    3   40   -0.0171633946
              1    3   10   -0.0159118454
              4    3   62   -0.0150913969
              1    3    7   -0.0131336167
              2    3   10   -0.0128233858
          --------------------------------

  Eigenvector is saved on CCRE_1_1  

  VIP all done  ! 
 @CHECKOUT-I, Total execution time (CPU/WALL):        0.20/       0.14 seconds.
--executable xvip finished with status     0 in        0.17 seconds (walltime).
  The final electronic energy is       -75.833511254642318 a.u. 
  This computation required                           18.03 seconds (walltime).
 
Timing info
28.690u 5.074s 0:18.04 187.1% 0+0k 4016+502128io 387pf+0w
 
Scratch space info (BEFORE cleaning //scratch/mdavis)
 
Cleaning up ...
Filesystem      Size  Used Avail Use% Mounted on
/dev/sda9       785G  128G  618G  18% /scratch
 
Scratch space info (AFTER cleaning //scratch/mdavis)
Filesystem      Size  Used Avail Use% Mounted on
/dev/sda9       785G  127G  619G  17% /scratch
