 --invoking executable--
/home/qc/cfour_v2.1_intel_2017_eland2/bin/xjoda


   *************************************************************************
         <<<     CCCCCC     CCCCCC   |||     CCCCCC     CCCCCC   >>>
       <<<      CCC        CCC       |||    CCC        CCC         >>>
      <<<      CCC        CCC        |||   CCC        CCC            >>>
    <<<        CCC        CCC        |||   CCC        CCC              >>>
      <<<      CCC        CCC        |||   CCC        CCC            >>>
       <<<      CCC        CCC       |||    CCC        CCC         >>>
         <<<     CCCCCC     CCCCCC   |||     CCCCCC     CCCCCC   >>>
   *************************************************************************

     ****************************************************************
     * CFOUR Coupled-Cluster techniques for Computational Chemistry *
     ****************************************************************
 

   Department of Chemistry                Institut fuer Physikalische Chemie
   University of Florida                  Universitaet Mainz
   Gainesville, FL 32611, USA             D-55099 Mainz, Germany

   Department of Chemistry                Fakultaet fuer Chemie und Biowiss.
   Johns Hopkins University               Karlsruher Institut fuer Technologie
   Baltimore, MD 21218, USA               D-76131 Karlsruhe, Germany

   Department of Chemistry                Department of Physical Chemistry
   Southern Methodist University          Eotvos Lorand University
   Dallas, TX 75275, USA                  H-1053 Budapest, Hungary

 
                       Version 2.1
 
                     node4                                             
                     Fri 04 Nov 2022 09:27:08 AM CDT                   
                     integer*8 version is running
 
********************************************************************************
*                          Input from ZMAT file                                *
********************************************************************************
h2o AUG-PVTZ CC3                                                                
H        0.0000000000       -1.5262129858       -0.9691762560                   
O        0.0000000000        0.0000000000        0.1220883219                   
H        0.0000000000        1.5262129858       -0.9691762560                   
                                                                                
                                                                                
                                                                                
*CFOUR(CALC=CC3,BASIS=AUG-PVTZ,COORDINATES=CARTESIAN,UNITS=BOHR                 
CC_CONV=9                                                                       
LINEQ_CONV=12                                                                   
SCF_CONV=9                                                                      
ESTATE_CONV=10                                                                  
CHARGE=0                                                                        
MULTIPLICITY=1                                                                  
FROZEN_CORE=ON                                                                  
RELATIVISTIC=OFF                                                                
REFERENCE=RHF                                                                   
EXCITE=EOMIP                                                                    
ESTATE_SYM=0/1/0/0                                                              
MEM_UNIT=GB,MEMORY_SIZE=32)                                                     
                                                                                
H:APVTZ-X2C                                                                     
O:APVTZ-X2C                                                                     
H:APVTZ-X2C                                                                     
                                                                                
********************************************************************************
    -------------------------------------------------------------------
                    CFOUR Control Parameters 
    -------------------------------------------------------------------
        External           Internal           Value            Units
          Name               Name
    -------------------------------------------------------------------
       ABCDTYPE             IABCDT         STANDARD    [  0]    ***   
       ANHARMONIC           IANHAR         OFF         [  0]    ***   
       ANH_ALGORIT          IANALG         STANDARD    [  0]    ***   
       ANH_DERIVAT          IANDER         SECOND      [  1]    ***   
       ANH_MODE             ANHMOD         VIBRATION   [  0]    ***   
       ANH_STEPSIZ          ICUBST             50000          x 10-6  
       ANH_SYMMETR          IANHSM         ABELIAN     [  0]    ***   
       AO_LADDERS           IAOLAD         SINGLEPASS  [  1]    ***   
       AV_SCF               IAVSCF         OFF         [  0]    ***   
       BASIS                IBASIS         AUG-PVTZ    [ 34]    ***   
       BOTHVECTORS          BOTHVC         OFF         [  0]    ***   
       BOX_POTENT           IPIAB          OFF         [  0]    ***   
       BREIT                IBREIT         OFF         [  0]    ***   
       BRUCK_CONV           IBRTOL          10D-  4             ***   
       BRUECKNER            IBRKNR         OFF         [  0]    ***   
       BUFFERSIZE           IBUFFS              4096            ***   
       CACHE_RECS           ICHREC             10               ***   
       CALCLEVEL            ICLLVL         CC3         [ 32]    ***   
       CCORBOPT             ICCORB         OFF         [  0]  x 0.01  
       CC_CONV              ICCCNV          10D-  9             ***   
       CC_EXPORDER          ICCEOR              5               ***   
       CC_EXTRAPOL          ICCEXT         DIIS        [  1]    ***   
       CC_GUESS             ICCGES         MP2         [  0]    ***   
       CC_MAXCYC            ICCCYC            100              cycles 
       CC_PROGRAM           ICCPRO         VCC         [  0]    ***   
       CHARGE               ICHRGE              0               ***   
       CHOLESKY             ICHOLE         OFF         [  0]    ***   
       CIS_CONV             ICISTL              5               ***   
       COMM_SIZE            IPSIZE            ***               ***   
       CONSTANT             ICONST         OLD         [  1]    ***   
       CONTINUUM            ICONTU         NONE        [  0]    ***   
       CONTRACTION          ICNTYP         GENERAL     [  1]    ***   
       COORDINATES          ICOORD         CARTESIAN   [  1]    ***   
       CPHF_CONVER          ICPHFT          10D- 16             ***   
       CPHF_MAXCYC          ICPHFC             64              cycles 
       CUBIC                ICUBIC         OFF         [  0]    ***   
       CURVILINEAR          ICURVY         OFF         [  0]    ***   
       DBOC                 IDBOC          OFF         [  0]    ***   
       DCT                  IDCT           OFF         [  0]    ***   
       DERIV_LEV            IDRLVL         ZERO        [  0]    ***   
       DEVMEM_SIZE          IDVMEM         *********           MByte  
       DIAG_MRCC            IEOMST          10D-  0             ***   
       DIFF_TYPE            IDIFTY         RELAXED     [  0]    ***   
       DIRECT               IDIRCT         OFF         [  0]    ***   
       DROPMO               IDRPMO      NONE         
       ECP                  IECP           OFF         [  0]    ***   
       EIGENVECTOR          IVEC                1               ***   
       EL_ANHARM            IELANH         OFF         [  0]    ***   
       EOMFOLLOW            IEOMSR         ENERGY      [  0]    ***   
       EOMIP                IEOMIP         OFF         [  0]    ***   
       EOMLEVEL             HBARFM         SAME        [  0]    ***   
       EOM_MRCC             IMRCCE         NEW         [  1]    ***   
       EOM_NONIT            EOMNON         OFF         [  0]    ***   
       EOM_NSING            IEOMSI          10D-  0             ***   
       EOM_NSTATES          IMRCCD         DAVIDSON    [  0]    ***   
       EOM_NTRIP            IEOMTR          10D-  0             ***   
       EOM_ORDER            IEXORD         ENERGY      [  0]    ***   
       EOM_PROPSTA          IEOMST              0               ***   
       ESTATE_CONV          IEXTOL          10D- 10             ***   
       ESTATE_DIAG          IEXDIG         ITERATIVE   [  0]    ***   
       ESTATE_LOCK          IESLOC         ON          [  1]    ***   
       ESTATE_MAXC          IEXMXC             40               ***   
       ESTATE_PROP          IEXPRP         OFF         [  0]    ***   
       ESTATE_SYM           IEXSYM   0,  1,  0,  0,
       EVAL_HESS            IRECAL              0            # of cyc.
       EXCITATION           IEXCIT              0               ***   
       EXCITE               IEXCIT         EOMIP       [  4]    ***   
       EXTERN_POT           IEXPOT         OFF         [  0]    ***   
       FCGRADNEW            IFCGNW         OFF         [  0]    ***   
       FC_FIELD             IFINFC              0             x 10-6  
       FD_CALTYPE           IFDCAL         GRADONLY    [  0]    ***   
       FD_PROJECT           IFDPRJ         OFF         [  1]    ***   
       FD_STEPSIZE          IDISFD              0            10-4 bohr
       FD_USEGROUP          IFDGRP         FULL        [  0]    ***   
       FILE_RECSIZ          IFLREC              4096           words  
       FINITE_PERT          IFIPER              0             x 10-6  
       FIXGEOM              IFIXGM         OFF         [  0]    ***   
       FOCK                 IFOCK          AO          [  1]    ***   
       FREQ_ALGORI          IVIALG         STANDARD    [  0]    ***   
       FROZEN_CORE          IFROCO         ON          [  1]    ***   
       GAMMA_ABCD           IGABCD         STORE       [  0]    ***   
       GAMMA_ABCI           IGABCI         STORE       [  0]    ***   
       GENBAS_1             IGNBS1              0               ***   
       GENBAS_2             IGNBS2              0               ***   
       GENBAS_3             IGNBS3              0               ***   
       GENBAS_4             IGNBS4              0               ***   
       GEO_CONV             ICONTL              5              H/bohr 
       GEO_MAXCYC           IOPTCY             50               ***   
       GEO_MAXSTEP          IMXSTP            300            millibohr
       GEO_METHOD           INR            SINGLE_POINT[  5]    ***   
       GIAO                 IGIAO          OFF         [  1]    ***   
       GIMIC                IGIMIC         OFF         [  0]    ***   
       GRID                 IGRID          OFF         [  0]    ***   
       GRID_ALGO            IGALGO         SERIAL      [  0]    ***   
       GUESS                IGUESS         MOREAD      [  0]    ***   
       HBAR                 IHBAR          ON          [  1]    ***   
       HESS_TYPE            IHESTP         SCF         [  0]    ***   
       HF2_FILE             IHF2Fl         USE         [  1]    ***   
       HFSTABILITY          ISTABL         OFF         [  0]    ***   
       INCORE               INCORE         OFF         [  0]    ***   
       INPUT_MRCC           IMRCC          ON          [  1]    ***   
       INTEGRALS            INTTYP         VMOL        [  1]    ***   
       JODA_PRINT           IJPRNT              0               ***   
       KEYWORD_OUT          IDMPKW         NO          [  0]    ***   
       LINDEP_TOL           ILINDP              8               ***   
       LINEQ_CONV           IZTACN          10D- 12           cycles  
       LINEQ_EXPOR          ILMAXD              5               ***   
       LINEQ_MAXCY          ILMAXC            100               ***   
       LINEQ_TYPE           ILTYPE         DIIS        [  1]    ***   
       LOCK_ORBOCC          ILOCOC         OFF         [  0]    ***   
       MEMORY_SIZE          IMEMSZ         *********           words  
       MEM_UNIT             IMEMU          GB          [  3]    ***   
       MRCC                 IMRCCC         OFF         [  0]    ***   
       MULTIPLICTY          IMULTP              1               ***   
       NACOUPLING           IVCOUP         OFF         [  0]    ***   
       NEGEVAL              IDIE           ABORT       [  0]    ***   
       NEWNORM              INEWNO         OFF         [  0]    ***   
       NON-HF               INONHF         OFF         [  0]    ***   
       NTOP_TAMP            ITOPT2             15               ***   
       NUC_MODEL            INUCMO         POINT       [  0]    ***   
       OCCUPATION           IOCCU   ESTIMATED BY SCF 
       OPEN-SHELL           IOPEN          SPIN-ORBITAL[  0]    ***   
       OPTVIB               IOPTVB         OFF         [  0]    ***   
       ORBITALS             IORBTP         STANDARD    [  0]    ***   
       PARALLEL             IPARAL         ON          [  1]    ***   
       PARA_INT             IPINTS         ON          [  1]    ***   
       PARA_PRINT           IPPRIN              0               ***   
       PERT_ORB             IPTORB         STANDARD    [  0]    ***   
       POINTS               IGRDFD              0               ***   
       PRINT                IPRNT               0               ***   
       PROPS                IPROPS         OFF         [  0]    ***   
       PROP_INTEGR          IINTYP         INTERNAL    [  0]    ***   
       PSI                  IPSI           OFF         [  0]    ***   
       QC_ALG               IQCALG         FLM         [  0]    ***   
       QC_LINALG            IQCLIN         TRIDIAG     [  2]    ***   
       QC_MAXCYC            IQCMAX          10D-100           cycles  
       QC_MAXSCFCY          IQCMSC          10D- 15           cycles  
       QC_RTRUST            IQCRTR          10D-  0           x 10-3  
       QC_SKIPSCF           IQCSKI         OFF         [  0]    ***   
       QC_START             IQCSTA          10D-  1             ***   
       QRHFGUESS            IQGUES         OFF         [  0]    ***   
       QUARTIC              IQUART         OFF         [  0]    ***   
       RAMAN_INT            IRAMIN         OFF         [  0]    ***   
       RAMAN_ORB            IRAMRE         UNRELAXED   [  0]    ***   
       RDO                  IRDOFM         OFF         [  0]    ***   
       REDUCE_REPR          REDREP         Ir          [  0]    ***   
       REFERENCE            IREFNC         RHF         [  0]    ***   
       RELATIVIST           IRELAT         OFF         [  0]    ***   
       RELAX_DENS           IRDENS         OFF         [  0]    ***   
       RESET_FLAGS          IRESET         OFF         [  0]    ***   
       RESTART_CC           ICCRES         OFF         [  0]    ***   
       ROT_EVEC             ROTVEC              0               ***   
       SAVE_INTS            ISVINT         OFF         [  0]    ***   
       SCALE_ON             ISTCRT              0               ***   
       SCF_CONV             ISCFCV          10D-  9             ***   
       SCF_DAMPING          IDAMP               0             x 10-3  
       SCF_EXPORDE          IRPPOR              6               ***   
       SCF_EXPSTAR          IRPPLS              8               ***   
       SCF_EXTRAPO          IRPP           ON          [  1]    ***   
       SCF_MAXCYC           ISCFCY            150              cycles 
       SCF_NOSTOP           ISCFST         OFF         [  0]    ***   
       SCF_PRINT            ISCFPR              0               ***   
       SCF_PROG             ISCFPR         SCF         [  0]    ***   
       SD_FIELD             IFINSD              0             x 10-6  
       SOPERT               IPERSO         OFF         [  0]    ***   
       SPHERICAL            IDFGHI         ON          [  1]    ***   
       SPINORBIT            ISOCAL         OFF         [  0]    ***   
       SPINROTATIO          ISRCON         OFF         [  0]    ***   
       SPIN_FLIP            ISPFLP         OFF         [  0]    ***   
       SPIN_ORBIT           ISPORB         OFF         [  0]    ***   
       SPIN_SCAL            ISCSMP         OFF         [  0]    ***   
       STEEPSCALE           ISTPSC              1000          x 10-3  
       SUBGROUP             ISUBGP         DEFAULT     [  0]    ***   
       SUBGRPAXIS           ISBXYZ         X           [  0]    ***   
       SYMMETRY             ISYM           ON          [  0]    ***   
       SYM_CHECK            ISYMCK         OVERRIDE    [  1]    ***   
       T3_EXTRAPOL          IT3EXT         OFF         [  0]    ***   
       T4_EXTRAPOL          IT4EXP         OFF         [  0]    ***   
       TAMP_SUM             IEVERY              5               ***   
       TESTSUITE            ITESTS         OFF         [  0]    ***   
       THERMOCH             ITHERM         OFF         [  0]    ***   
       TOL_CHOLESK          ITOLCH          10D-  4             ***   
       TRANGRAD             IRESRM         OFF         [  0]    ***   
       TRANS_INV            ITRAIN         USE         [  0]    ***   
       TREAT_PERT           ITREAT         SIMULTANEOUS[  0]    ***   
       TRIP_ALGORI          ITRALG         NORMAL      [  0]    ***   
       UIJ_THRESHO          IUIJTH              1               ***   
       UNITS                IUNITS         BOHR        [  1]    ***   
       UNOS                 IUNOS          OFF         [  0]    ***   
       UPDATE_HESS          IHUPDT         ON          [  1]    ***   
       VIBPHASE             ISETPH         STANDARD    [  0]    ***   
       VIBRATION            IVIB           NO          [  0]    ***   
       VIB_ALGORIT          IGEALG         STANDARD    [  0]    ***   
       VNATORB              IVNORB         OFF         [  0]    ***   
       VTRAN                IVTRAN         FULL/PARTIAL[  0]    ***   
       XFIELD               IXEFLD              0             x 10-6  
       XFORM_TOL            IXFTOL          10D- 11             ***   
       YFIELD               IYEFLD              0             x 10-6  
       ZFIELD               IZEFLD              0             x 10-6  
       ZSCALE_EXP           IZEXPS         OFF         [  0]    ***   
    -------------------------------------------------------------------
  @GETXYZ-I,     3 atoms read from ZMAT.
   Rotational constants (in cm-1): 
          8.8181141501            12.8218013629            28.2399952896
   Rotational constants (in MHz): 
     264360.4486358071        384387.9885077663        846613.8787858995
********************************************************************************
   The full molecular point group is C2v .
   The largest Abelian subgroup of the full molecular point group is C2v .
   The computational point group is C2v .
********************************************************************************


 ----------------------------------------------------------------
         Coordinates used in calculation (QCOMP) 
 ----------------------------------------------------------------
 Z-matrix   Atomic            Coordinates (in bohr)
  Symbol    Number           X              Y              Z
 ----------------------------------------------------------------
     H         1         0.00000000    -1.52621299    -0.96913584
     O         8         0.00000000     0.00000000     0.12212874
     H         1         0.00000000     1.52621299    -0.96913584
 ----------------------------------------------------------------
 
   Interatomic distance matrix (Angstroms) 
 
                 H             O             H    
                [ 1]        [ 2]        [ 3]
  H    [ 1]     0.00000
  O    [ 2]     0.99285     0.00000
  H    [ 3]     1.61527     0.99285     0.00000
 rotcon2
   Rotational constants (in cm-1): 
          8.8181141501            28.2399952896            12.8218013629
   Rotational constants (in MHz): 
     264360.4486358071        846613.8787858995        384387.9885077663
  There is   1 frozen-core orbital.
  There are   92 basis functions.
 @GEOPT-W, Archive file not created for single-point calculation.
 @CHECKOUT-I, Total execution time (CPU/WALL):        0.13/       0.18 seconds.
--executable xjoda finished with status     0 in        0.21 seconds (walltime).
 --invoking executable--
/home/qc/cfour_v2.1_intel_2017_eland2/bin/xvmol
 SERIAL VERSION OF MOLECULE STARTED
********************************************************************************
                    INPUT FROM MOL FILE
********************************************************************************
INTGRL        1    0    1    0    0    0    0    0    0                         
         *** CFOUR Program System (Release V0.1) ***                            
h2o AUG-PVTZ CC3                                                                
    2    2 X  Y       0.10E-08              0    0                              
   9999.00      3.00                                                            
          1.00000000    1    3    1    1    1                                   
H #1   0.000000000000000  -1.526212985800000  -0.969135840713172                
    6    4                                                                      
   33.8700000000000       6.068000000000000E-003  0.000000000000000E+000        
  0.000000000000000E+000  0.000000000000000E+000                                
   5.09500000000000       4.530800000000000E-002  0.000000000000000E+000        
  0.000000000000000E+000  0.000000000000000E+000                                
   1.15900000000000       0.202822000000000       0.000000000000000E+000        
  0.000000000000000E+000  0.000000000000000E+000                                
  0.325800000000000       0.503903000000000        1.00000000000000             
  0.000000000000000E+000  0.000000000000000E+000                                
  0.102700000000000       0.383421000000000       0.000000000000000E+000        
   1.00000000000000       0.000000000000000E+000                                
  2.526000000000000E-002  0.000000000000000E+000  0.000000000000000E+000        
  0.000000000000000E+000   1.00000000000000                                     
    3    3                                                                      
   1.40700000000000        1.00000000000000       0.000000000000000E+000        
  0.000000000000000E+000                                                        
  0.388000000000000       0.000000000000000E+000   1.00000000000000             
  0.000000000000000E+000                                                        
  0.102000000000000       0.000000000000000E+000  0.000000000000000E+000        
   1.00000000000000                                                             
    2    2                                                                      
   1.05700000000000        1.00000000000000       0.000000000000000E+000        
  0.247000000000000       0.000000000000000E+000   1.00000000000000             
          8.00000000    1    4    1    1    1    1                              
O #2   0.000000000000000   0.000000000000000   0.122128737186828                
   11    5                                                                      
   15330.0000000000       5.080000000000000E-004 -1.150000000000000E-004        
  0.000000000000000E+000  0.000000000000000E+000  0.000000000000000E+000        
   2299.00000000000       3.929000000000000E-003 -8.950000000000000E-004        
  0.000000000000000E+000  0.000000000000000E+000  0.000000000000000E+000        
   522.400000000000       2.024300000000000E-002 -4.636000000000000E-003        
  0.000000000000000E+000  0.000000000000000E+000  0.000000000000000E+000        
   147.300000000000       7.918100000000000E-002 -1.872400000000000E-002        
  0.000000000000000E+000  0.000000000000000E+000  0.000000000000000E+000        
   47.5500000000000       0.230687000000000      -5.846300000000000E-002        
  0.000000000000000E+000  0.000000000000000E+000  0.000000000000000E+000        
   16.7600000000000       0.433118000000000      -0.136463000000000             
  0.000000000000000E+000  0.000000000000000E+000  0.000000000000000E+000        
   6.20700000000000       0.350260000000000      -0.175740000000000             
  0.000000000000000E+000  0.000000000000000E+000  0.000000000000000E+000        
   1.75200000000000       4.272800000000000E-002  0.160934000000000             
   1.00000000000000       0.000000000000000E+000  0.000000000000000E+000        
  0.688200000000000      -8.154000000000000E-003  0.603418000000000             
  0.000000000000000E+000  0.000000000000000E+000  0.000000000000000E+000        
  0.238400000000000       2.381000000000000E-003  0.378765000000000             
  0.000000000000000E+000   1.00000000000000       0.000000000000000E+000        
  7.376000000000001E-002  0.000000000000000E+000  0.000000000000000E+000        
  0.000000000000000E+000  0.000000000000000E+000   1.00000000000000             
    6    4                                                                      
   34.4600000000000       1.592800000000000E-002  0.000000000000000E+000        
  0.000000000000000E+000  0.000000000000000E+000                                
   7.74900000000000       9.974000000000000E-002  0.000000000000000E+000        
  0.000000000000000E+000  0.000000000000000E+000                                
   2.28000000000000       0.310492000000000       0.000000000000000E+000        
  0.000000000000000E+000  0.000000000000000E+000                                
  0.715600000000000       0.491026000000000        1.00000000000000             
  0.000000000000000E+000  0.000000000000000E+000                                
  0.214000000000000       0.336337000000000       0.000000000000000E+000        
   1.00000000000000       0.000000000000000E+000                                
  5.974000000000000E-002  0.000000000000000E+000  0.000000000000000E+000        
  0.000000000000000E+000   1.00000000000000                                     
    3    3                                                                      
   2.31400000000000        1.00000000000000       0.000000000000000E+000        
  0.000000000000000E+000                                                        
  0.645000000000000       0.000000000000000E+000   1.00000000000000             
  0.000000000000000E+000                                                        
  0.214000000000000       0.000000000000000E+000  0.000000000000000E+000        
   1.00000000000000                                                             
    2    2                                                                      
   1.42800000000000        1.00000000000000       0.000000000000000E+000        
  0.500000000000000       0.000000000000000E+000   1.00000000000000             
FINISH                                                                          
 
********************************************************************************
 ONE- AND TWO-ELECTRON INTEGRALS OVER SYMMETRY-ADAPTED AOS ARE CALCULATED.

  SPHERICAL HARMONICS ARE USED.
  
  INTEGRALS LESS THAN  0.10E-13 ARE NEGLECTED.

  NUCLEAR REPULSION ENERGY :    8.8554134904 A.U.
  @MOLECU-I, ONE ELECTRON INTEGRALS (CPU/WALL):        0.02/       0.02 SECONDS.
  @TWOEL-I,     262933 INTEGRALS OF SYMMETRY TYPE  I I I I
  @TWOEL-I,     865293 INTEGRALS OF SYMMETRY TYPE  I J I J
  @TWOEL-I,     466389 INTEGRALS OF SYMMETRY TYPE  I I J J
  @TWOEL-I,     575256 INTEGRALS OF SYMMETRY TYPE  I J K L
  @TWOEL-I, TOTAL NUMBER OF 2-E INTEGRALS    2169871.
  @MOLECU-I, TWO ELECTRON INTEGRALS (CPU/WALL):        0.90/       0.90 SECONDS.
 @CHECKOUT-I, Total execution time (CPU/WALL):        0.92/       0.92 seconds.

OMP_NUM_THREADS not specified; defaulting to 1
Running with 1 threads/proc

--executable xvmol finished with status     0 in        0.96 seconds (walltime).
 --invoking executable--
/home/qc/cfour_v2.1_intel_2017_eland2/bin/xvmol2ja
 @GETMEM-I,  Allocated   30517 MB of main memory.
 @CHECKOUT-I, Total execution time (CPU/WALL):        0.02/       0.01 seconds.
--executable xvmol2ja finished with status     0 in        0.04 seconds (walltime).
 --invoking executable--
/home/qc/cfour_v2.1_intel_2017_eland2/bin/xvscf
  There are   92 functions in the AO basis.

  There are 4 irreducible representations.

       Irrep        # of functions
         1                 35
         2                 18
         3                 27
         4                 12


  Parameters for SCF calculation: 
        SCF reference function:  RHF  
  Maximum number of iterations:  150
     Full symmetry point group: C2v 
     Computational point group: C2v 
        Initial density matrix: MOREAD                 
     SCF convergence tolerance: 10**(- 9)
  DIIS convergence acceleration:  ON
          Latest start for DIIS:   8
                     DIIS order:   6

  Memory information:     401180 words required.
  Fock matrices are constructed from AO integral file.
 @GETMEM-I,  Allocated       3 MB of main memory.
  Initialization and symmetry analysis required      0.001 seconds.

  @INITGES-I, Occupancies from core Hamiltonian:

          Alpha population by irrep:   3    1    1    0
           Beta population by irrep:   3    1    1    0


 total no. of electrons in initial guess :  0.000000000000000E+000
  --------------------------------------------------------------------
  Iteration         Total Energy            Largest Density Difference
  --------------------------------------------------------------------
       0             8.855413490415264              0.0000000000D+00
   current occupation vector 
     3  1  1  0
     3  1  1  0
       1           -61.254389690553033              0.1230166648D+02
   current occupation vector 
     3  1  1  0
     3  1  1  0
       2           -63.683512851892395              0.2974164326D+02
   current occupation vector 
     3  0  2  0
     3  0  2  0
       3           -70.806640437928891              0.2974185147D+02
   current occupation vector 
     3  1  1  0
     3  1  1  0
       4           -67.798543793828031              0.2551270512D+02
   current occupation vector 
     3  0  2  0
     3  0  2  0
       5           -72.172560796472695              0.2551225048D+02
   current occupation vector 
     3  1  1  0
     3  1  1  0
       6           -68.769869087817398              0.2392796628D+02
   current occupation vector 
     3  0  2  0
     3  0  2  0
       7           -72.543607025892967              0.2392810064D+02
   current occupation vector 
     3  1  1  0
     3  1  1  0
       8           -69.035626063064157              0.2352806156D+02
   current occupation vector 
     3  0  2  0
     3  0  2  0
       9           -75.772347863861526              0.2352899346D+02
   current occupation vector 
     3  1  1  0
     3  1  1  0
      10           -76.045589391277915              0.5203701300D+00
   current occupation vector 
     3  1  1  0
     3  1  1  0
      11           -76.055353063454547              0.8664724402D-01
   current occupation vector 
     3  1  1  0
     3  1  1  0
      12           -76.055477623500806              0.1154190202D-01
   current occupation vector 
     3  1  1  0
     3  1  1  0
      13           -76.055489179423461              0.3952840729D-02
   current occupation vector 
     3  1  1  0
     3  1  1  0
      14           -76.055491055265819              0.2316838446D-02
   current occupation vector 
     3  1  1  0
     3  1  1  0
      15           -76.055491087818638              0.3348913162D-03
   current occupation vector 
     3  1  1  0
     3  1  1  0
      16           -76.055491088407095              0.2974783222D-04
   current occupation vector 
     3  1  1  0
     3  1  1  0
      17           -76.055491088474867              0.1523828195D-04
   current occupation vector 
     3  1  1  0
     3  1  1  0
      18           -76.055491088476998              0.2869120441D-05
   current occupation vector 
     3  1  1  0
     3  1  1  0
      19           -76.055491088477282              0.3106385509D-06
   current occupation vector 
     3  1  1  0
     3  1  1  0
      20           -76.055491088477126              0.3333313967D-07
   current occupation vector 
     3  1  1  0
     3  1  1  0
      21           -76.055491088476657              0.7638396526D-08
   current occupation vector 
     3  1  1  0
     3  1  1  0
      22           -76.055491088476856              0.1022948865D-08
   current occupation vector 
     3  1  1  0
     3  1  1  0

  SCF has converged.

 Density matrix saved to file den.dat
 total electron number:   10.0000000000000     
     E(SCF)=       -76.055491088477112              0.4297954770D-09

  Eigenvector printing suppressed.

 @PUTMOS-I, Writing converged MOs to NEWMOS. 
 @PUTMOS-I, Symmetry   1 Full Blocks  8 Partial Blocksize   3
 @PUTMOS-I, Symmetry   2 Full Blocks  4 Partial Blocksize   2
 @PUTMOS-I, Symmetry   3 Full Blocks  6 Partial Blocksize   3
 @PUTMOS-I, Symmetry   4 Full Blocks  3 Partial Blocksize   0
 @PUTFOCK-I, Writing converged Fock matrix to NEWFOCK. 
 @PUTFOCK-I, Symmetry   1 Full Blocks  8 Partial Blocksize   3
 @PUTFOCK-I, Symmetry   2 Full Blocks  4 Partial Blocksize   2
 @PUTFOCK-I, Symmetry   3 Full Blocks  6 Partial Blocksize   3
 @PUTFOCK-I, Symmetry   4 Full Blocks  3 Partial Blocksize   0


 
  ORBITAL EIGENVALUES (ALPHA)  (1H = 27.2113834 eV)

       MO #        E(hartree)               E(eV)           FULLSYM    COMPSYM
       ----   --------------------   --------------------   -------   ---------
    1     1         -20.5712296658        -559.7716174460      A1        A1 (1)
    2     2          -1.3331054331         -36.2756430520      A1        A1 (1)
    3    54          -0.7063816333         -19.2216214515      B2        B2 (3)
    4     3          -0.5698016498         -15.5050911547      A1        A1 (1)
    5    36          -0.5061554103         -13.7731889297      B1        B1 (2)
  +++++++++++++++++++++++++++++++++++++++++++++++++++++++++++++++++++++++++++++
    6     4           0.0292217840           0.7951651680      A1        A1 (1)
    7    55           0.0472574946           1.2859418036      B2        B2 (3)
    8     5           0.1363530921           3.7103562659      A1        A1 (1)
    9    37           0.1596016192           4.3429808506      B1        B1 (2)
   10     6           0.1727005351           4.6994204734      A1        A1 (1)
   11    56           0.1818752934           4.9490783405      B2        B2 (3)
   12    57           0.2258305523           6.1451617410      B2        B2 (3)
   13     7           0.2428564325           6.6084594946      A1        A1 (1)
   14    81           0.2633268901           7.1654889669      A2        A2 (4)
   15    38           0.3035572483           8.2602126679      B1        B1 (2)
   16     8           0.3121881105           8.4950703672      A1        A1 (1)
   17    58           0.3642100244           9.9106586108      B2        B2 (3)
   18     9           0.4300748941          11.7029328345      A1        A1 (1)
   19    59           0.4601381704          12.5209961715      B2        B2 (3)
   20    60           0.6005756624          16.3424946096      B2        B2 (3)
   21    10           0.6500699730          17.6893032719      A1        A1 (1)
   22    11           0.7106058418          19.3365680066      A1        A1 (1)
   23    82           0.7196680195          19.5831623985      A2        A2 (4)
   24    39           0.7322674028          19.9260090482      B1        B1 (2)
   25    12           0.8156408928          22.1947170494      A1        A1 (1)
   26    40           0.8398967977          22.8547537792      B1        B1 (2)
   27    13           0.8972694843          24.4159439508      A1        A1 (1)
   28    61           0.9050494553          24.6276477254      B2        B2 (3)
   29    83           0.9157647728          24.9192263370      A2        A2 (4)
   30    62           0.9262216644          25.2037728238      B2        B2 (3)
   31    41           0.9291236254          25.2827391954      B1        B1 (2)
   32    14           0.9686415289          26.3580760212      A1        A1 (1)
   33    15           1.0104747558          27.4964159957      A1        A1 (1)
   34    63           1.0337353889          28.1293700022      B2        B2 (3)
   35    42           1.0795178875          29.3751751234      B1        B1 (2)
   36    64           1.1063160223          30.1043894454      B2        B2 (3)
   37    84           1.1627699951          31.6405801438      A2        A2 (4)
   38    16           1.1632324948          31.6531653993      A1        A1 (1)
   39    65           1.2725351913          34.6274429793      B2        B2 (3)
   40    85           1.5036519136          40.9164487219      A2        A2 (4)
   41    17           1.5753246838          42.8667639517      A1        A1 (1)
   42    43           1.5757823835          42.8792185920      B1        B1 (2)
   43    66           1.7500597683          47.6215473291      B2        B2 (3)
   44    18           1.8132835697          49.3419544281      A1        A1 (1)
   45    67           1.9602601270          53.3413898790      B2        B2 (3)
   46    19           2.0793077923          56.5808415430      A1        A1 (1)
   47    44           2.2546524351          61.3522118446      B1        B1 (2)
   48    86           2.3096162164          62.8478523722      A2        A2 (4)
   49    20           2.3249557551          63.2652624390      A1        A1 (1)
   50    21           2.4020302407          65.3625658171      A1        A1 (1)
   51    45           2.4040282444          65.4169342641      B1        B1 (2)
   52    68           2.4391986757          66.3739703527      B2        B2 (3)
   53    22           2.4859955641          67.6473784264      A1        A1 (1)
   54    46           2.7117581574          73.7906909104      B1        B1 (2)
   55    69           2.7128502181          73.8204073926      B2        B2 (3)
   56    23           2.7260066488          74.1784120703      A1        A1 (1)
   57    70           2.8549857242          77.6881111440      B2        B2 (3)
   58    87           2.8628169757          77.9012103287      A2        A2 (4)
   59    71           3.5800010917          97.4167822779      B2        B2 (3)
   60    24           3.7186753747         101.1903013608      A1        A1 (1)
   61    88           3.9797437945         108.2943342249      A2        A2 (4)
   62    47           4.0498916094         110.2031533110      B1        B1 (2)
   63    25           4.1778716659         113.6856676961      A1        A1 (1)
   64    72           4.1798550331         113.7396378622      B2        B2 (3)
   65    48           4.3061594471         117.1765556955      B1        B1 (2)
   66    89           4.3670102914         118.8323913511      A2        A2 (4)
   67    49           4.3736622609         119.0134006430      B1        B1 (2)
   68    26           4.4467675562         121.0026968624      A1        A1 (1)
   69    73           4.4623327164         121.4262464055      B2        B2 (3)
   70    27           4.6510587868         126.5617438637      A1        A1 (1)
   71    74           4.7142982391         128.2825768458      B2        B2 (3)
   72    75           5.0291072761         136.8489662485      B2        B2 (3)
   73    90           5.0804255213         138.2454066947      A2        A2 (4)
   74    28           5.1915741035         141.2699133789      A1        A1 (1)
   75    76           5.2529582200         142.9402601078      B2        B2 (3)
   76    50           5.4001107526         146.9444840921      B1        B1 (2)
   77    29           5.6567440421         153.9278309260      A1        A1 (1)
   78    30           6.0727871164         165.2489385305      A1        A1 (1)
   79    77           6.5493595921         178.2171348851      B2        B2 (3)
   80    51           6.6962894138         182.2152985951      B1        B1 (2)
   81    31           6.7994166063         185.0215321703      A1        A1 (1)
   82    52           7.1061056049         193.3669640953      B1        B1 (2)
   83    91           7.2150825425         196.3323773272      A2        A2 (4)
   84    53           7.2229941792         196.5476639060      B1        B1 (2)
   85    32           7.2814652096         198.1387415309      A1        A1 (1)
   86    78           7.3083343254         198.8698873447      B2        B2 (3)
   87    92           7.3632605227         200.3645051560      A2        A2 (4)
   88    33           7.4516838856         202.7706271866      A1        A1 (1)
   89    79           7.7889694911         211.9486351145      B2        B2 (3)
   90    34           7.8965298448         214.8755011362      A1        A1 (1)
   91    80           8.5913607336         233.7828108494      B2        B2 (3)
   92    35          14.8179848919         403.2178681097      A1        A1 (1)


  VSCF finished.

 @CHECKOUT-I, Total execution time (CPU/WALL):        0.84/       0.58 seconds.
--executable xvscf finished with status     0 in        0.61 seconds (walltime).
 --invoking executable--
/home/qc/cfour_v2.1_intel_2017_eland2/bin/xvtran
 @GETMEM-I,  Allocated   30517 MB of main memory.
  Full RHF integral transformation
  The following   1 MOs will be dropped:
    1
  There are  91 active molecular orbitals.
  Transformation of IIII integrals :
  1 pass through the AO integral file was required.
      262933 AO integrals were read.
      266728 MO integrals were written to HF2.
  Transformation of IIJJ integrals :
  1 pass through the AO integral file was required.
      466389 AO integrals were read.
      480525 MO integrals were written to HF2.
  Transformation of IJIJ integrals :
  1 pass through the AO integral file was required.
      865293 AO integrals were read.
      887262 MO integrals were written to HF2.
  Transformation of IJKL integrals :
  1 pass through the AO integral file was required.
      575256 AO integrals were read.
      594864 MO integrals were written to HF2.
  Summary of active molecular orbitals: 
------------------------------------------------------------------------
 
  Index      Eigenvalue    Symmetry    Index      Eigenvalue    Symmetry
------------------------------------------------------------------------
     1        -1.3331054        1        47         4.0498916        2
     2        -0.5698016        1        48         4.3061594        2
     3        -0.5061554        2        49         4.3736623        2
     4        -0.7063816        3        50         5.4001108        2
     5         0.0292218        1        51         6.6962894        2
     6         0.1363531        1        52         7.1061056        2
     7         0.1727005        1        53         7.2229942        2
     8         0.2428564        1        54         0.0472575        3
     9         0.3121881        1        55         0.1818753        3
    10         0.4300749        1        56         0.2258306        3
    11         0.6500700        1        57         0.3642100        3
    12         0.7106058        1        58         0.4601382        3
    13         0.8156409        1        59         0.6005757        3
    14         0.8972695        1        60         0.9050495        3
    15         0.9686415        1        61         0.9262217        3
    16         1.0104748        1        62         1.0337354        3
    17         1.1632325        1        63         1.1063160        3
    18         1.5753247        1        64         1.2725352        3
    19         1.8132836        1        65         1.7500598        3
    20         2.0793078        1        66         1.9602601        3
    21         2.3249558        1        67         2.4391987        3
    22         2.4020302        1        68         2.7128502        3
    23         2.4859956        1        69         2.8549857        3
    24         2.7260066        1        70         3.5800011        3
    25         3.7186754        1        71         4.1798550        3
    26         4.1778717        1        72         4.4623327        3
    27         4.4467676        1        73         4.7142982        3
    28         4.6510588        1        74         5.0291073        3
    29         5.1915741        1        75         5.2529582        3
    30         5.6567440        1        76         6.5493596        3
    31         6.0727871        1        77         7.3083343        3
    32         6.7994166        1        78         7.7889695        3
    33         7.2814652        1        79         8.5913607        3
    34         7.4516839        1        80         0.2633269        4
    35         7.8965298        1        81         0.7196680        4
    36        14.8179849        1        82         0.9157648        4
    37         0.1596016        2        83         1.1627700        4
    38         0.3035572        2        84         1.5036519        4
    39         0.7322674        2        85         2.3096162        4
    40         0.8398968        2        86         2.8628170        4
    41         0.9291236        2        87         3.9797438        4
    42         1.0795179        2        88         4.3670103        4
    43         1.5757824        2        89         5.0804255        4
    44         2.2546524        2        90         7.2150825        4
    45         2.4040282        2        91         7.3632605        4
    46         2.7117582        2
------------------------------------------------------------------------
  -1.33310543307302      -0.569801649802597      -0.506155410301999     
 -0.706381633338773       2.922178399701636E-002  0.136353092064439     
  0.172700535077798       0.242856432450377       0.312188110481026     
  0.430074894114427       0.650069972990567       0.710605841767452     
  0.815640892753080       0.897269484315476       0.968641528940055     
   1.01047475578657        1.16323249479791        1.57532468384794     
   1.81328356970154        2.07930779230543        2.32495575506164     
   2.40203024066423        2.48599556413687        2.72600664875732     
   3.71867537468737        4.17787166587583        4.44676755619788     
   4.65105878680486        5.19157410346420        5.65674404212666     
   6.07278711638393        6.79941660629652        7.28146520955270     
   7.45168388559927        7.89652984479169        14.8179848919278     
  0.159601619173714       0.303557248319300       0.732267402772185     
  0.839896797719808       0.929123625351899        1.07951788748112     
   1.57578238348744        2.25465243507784        2.40402824444761     
   2.71175815744945        4.04989160937140        4.30615944706243     
   4.37366226088488        5.40011075262220        6.69628941375631     
   7.10610560488005        7.22299417919305       4.725749458316575E-002
  0.181875293430268       0.225830552259204       0.364210024353190     
  0.460138170390477       0.600575662376223       0.905049455348056     
  0.926221664414720        1.03373538892630        1.10631602233670     
   1.27253519125648        1.75005976833560        1.96026012697990     
   2.43919867567957        2.71285021814098        2.85498572424604     
   3.58000109167012        4.17985503310240        4.46233271644151     
   4.71429823908783        5.02910727605516        5.25295821997220     
   6.54935959210105        7.30833432543198        7.78896949114703     
   8.59136073358895       0.263326890130856       0.719668019468102     
  0.915764772804930        1.16276999513963        1.50365191362841     
   2.30961621643066        2.86281697566092        3.97974379446404     
   4.36701029140204        5.08042552128041        7.21508254252298     
   7.36326052265397     
 @CHECKOUT-I, Total execution time (CPU/WALL):        1.04/       0.58 seconds.
--executable xvtran finished with status     0 in        0.62 seconds (walltime).
 --invoking executable--
/home/qc/cfour_v2.1_intel_2017_eland2/bin/xintprc
 @GETMEM-I,  Allocated   30517 MB of main memory.
  @GMOIAA-I, Processing MO integrals for spin case AA.
  @GMOIAA-I, Generation of integral list completed.
                      TYPE                NUMBER
                      ----               --------
                      PPPP               1862118
                      PPPH                340336
                      PPHH                 15793
                      PHPH                 10160
                      PHHH                   950
                      HHHH                    22

                     TOTAL               2229379

  @FORMT2-I, Second-order MP correlation energies:
            ------------------------------------------------
            E(SCF)                  =    -76.055491088477 a.u.
            E2(AA)                  =     -0.032858905879 a.u.
            E2(AB)                  =     -0.205204268776 a.u.
            E2(TOT)                 =     -0.270922080533 a.u.
            Total MP2 energy        =    -76.326413169010 a.u.
            ------------------------------------------------
   Largest T2 amplitudes for spin case AB:
       _       _                 _       _                 _       _
   i   j   a   b             i   j   a   b             i   j   a   b
-----------------------------------------------------------------------------
[  4   4  58  58]-0.02101 [  2   2  14  14]-0.01922 [  3   3  42  42]-0.01596
[  3   3  41  41]-0.01451 [  4   2  58  14]-0.01389 [  2   4  14  58]-0.01389
[  4   4  62  58]-0.01366 [  4   4  58  62]-0.01366 [  3   3  42  41]-0.01317
[  3   3  41  42]-0.01317 [  3   2  41  14]-0.01286 [  2   3  14  41]-0.01286
[  4   4  59  59]-0.01276 [  4   4  58  55]-0.01274 [  4   4  55  58]-0.01274
-----------------------------------------------------------------------------
   Norm of T2AB vector (    31238 symmetry allowed elements):  0.2214105657.
-----------------------------------------------------------------------------
 @CHECKOUT-I, Total execution time (CPU/WALL):        0.62/       0.41 seconds.
--executable xintprc finished with status     0 in        0.44 seconds (walltime).
  calling xvcc 
 --invoking executable--
/home/qc/cfour_v2.1_intel_2017_eland2/bin/xvcc
 @GETMEM-I,  Allocated   30517 MB of main memory.
   CC3 energy will be calculated.
   The total correlation energy is -0.270922080533 a.u.
   The total correlation energy is -0.278666062174 a.u.
  Convergence information after     1 iterations: 
  Largest element of residual vector :  0.10110657E-01.
  Largest element of DIIS residual   :  0.10110657E-01.
   The total correlation energy is -0.283392870297 a.u.
  Convergence information after     2 iterations: 
  Largest element of residual vector :  0.15772243E-02.
  Largest element of DIIS residual   : -0.17577081E-02.
   The total correlation energy is -0.284289457061 a.u.
  Convergence information after     3 iterations: 
  Largest element of residual vector :  0.18038135E-02.
  Largest element of DIIS residual   :  0.11328691E-02.
   The total correlation energy is -0.284770843621 a.u.
  Convergence information after     4 iterations: 
  Largest element of residual vector :  0.25710951E-03.
  Largest element of DIIS residual   : -0.13644623E-03.
   The total correlation energy is -0.284806398838 a.u.
  Convergence information after     5 iterations: 
  Largest element of residual vector :  0.14591863E-03.
  Largest element of DIIS residual   :  0.68542486E-04.
   The total correlation energy is -0.284809653424 a.u.
  Convergence information after     6 iterations: 
  Largest element of residual vector :  0.32947147E-04.
  Largest element of DIIS residual   :  0.23800319E-04.
   The total correlation energy is -0.284808947318 a.u.
  Convergence information after     7 iterations: 
  Largest element of residual vector :  0.17315030E-04.
  Largest element of DIIS residual   :  0.10013925E-04.
   The total correlation energy is -0.284808878387 a.u.
  Convergence information after     8 iterations: 
  Largest element of residual vector :  0.49159588E-05.
  Largest element of DIIS residual   :  0.26894340E-05.
   The total correlation energy is -0.284809105284 a.u.
  Convergence information after     9 iterations: 
  Largest element of residual vector :  0.18022379E-05.
  Largest element of DIIS residual   : -0.13205915E-05.
   The total correlation energy is -0.284809132592 a.u.
  Convergence information after    10 iterations: 
  Largest element of residual vector :  0.59465011E-06.
  Largest element of DIIS residual   :  0.35722559E-06.
   The total correlation energy is -0.284809146113 a.u.
  Convergence information after    11 iterations: 
  Largest element of residual vector : -0.19777111E-06.
  Largest element of DIIS residual   : -0.89209492E-07.
   The total correlation energy is -0.284809148775 a.u.
  Convergence information after    12 iterations: 
  Largest element of residual vector :  0.57580653E-07.
  Largest element of DIIS residual   :  0.25624144E-07.
   The total correlation energy is -0.284809149386 a.u.
  Convergence information after    13 iterations: 
  Largest element of residual vector :  0.10750942E-07.
  Largest element of DIIS residual   :  0.78487693E-08.
   The total correlation energy is -0.284809149757 a.u.
  Convergence information after    14 iterations: 
  Largest element of residual vector :  0.68706530E-08.
  Largest element of DIIS residual   :  0.34032931E-08.
   The total correlation energy is -0.284809149983 a.u.
  Convergence information after    15 iterations: 
  Largest element of residual vector :  0.22140703E-08.
  Largest element of DIIS residual   :  0.12874062E-08.
   The total correlation energy is -0.284809150029 a.u.
  Convergence information after    16 iterations: 
  Largest element of residual vector :  0.93558737E-09.
  Largest element of DIIS residual   :  0.30294670E-09.
  Amplitude equations converged in    16iterations.
   The total correlation energy is -0.284809150036 a.u.
   The CC iterations have converged.

   Largest T1 amplitudes for spin case AA:
   i       a                 i       a                 i       a    
-----------------------------------------------------------------------------
[  3      37    ] 0.01499 [  3      38    ]-0.01257 [  2       6    ] 0.00872
[  2       9    ] 0.00779 [  4      66    ]-0.00532 [  3      47    ]-0.00390
[  2       5    ] 0.00381 [  3      40    ] 0.00369 [  4      62    ]-0.00341
[  4      73    ]-0.00337 [  2      20    ]-0.00334 [  2      28    ]-0.00330
[  3      41    ] 0.00290 [  1      14    ]-0.00272 [  2      13    ] 0.00265
-----------------------------------------------------------------------------
   Norm of T1AA vector (      107 symmetry allowed elements):  0.0278462831.
-----------------------------------------------------------------------------
   Largest T2 amplitudes for spin case AB:
       _       _                 _       _                 _       _
   i   j   a   b             i   j   a   b             i   j   a   b
-----------------------------------------------------------------------------
[  4   4  58  58]-0.02417 [  2   2  14  14]-0.02104 [  3   3  42  42]-0.01691
[  4   4  62  58]-0.01577 [  4   4  58  62]-0.01577 [  3   3  41  41]-0.01555
[  4   4  59  59]-0.01512 [  3   3  37  37]-0.01452 [  3   3  42  41]-0.01438
[  3   3  41  42]-0.01438 [  2   2  59  59]-0.01436 [  4   4  58  55]-0.01434
[  4   4  55  58]-0.01434 [  4   2  58  14]-0.01394 [  2   4  14  58]-0.01394
-----------------------------------------------------------------------------
   Norm of T2AB vector (    31238 symmetry allowed elements):  0.2488649045.
-----------------------------------------------------------------------------
       Summary of iterative solution of CC equations 
      -----------------------------------------------------------
                       Correlation           Total
       Iteration         Energy              Energy
      -----------------------------------------------------------
            0        -0.270922080533     -76.326413169010  DIIS 
            1        -0.278666062174     -76.334157150651  DIIS 
            2        -0.283392870297     -76.338883958774  DIIS 
            3        -0.284289457061     -76.339780545539  DIIS 
            4        -0.284770843621     -76.340261932098  DIIS 
            5        -0.284806398838     -76.340297487315  DIIS 
            6        -0.284809653424     -76.340300741901  DIIS 
            7        -0.284808947318     -76.340300035795  DIIS 
            8        -0.284808878387     -76.340299966865  DIIS 
            9        -0.284809105284     -76.340300193762  DIIS 
           10        -0.284809132592     -76.340300221069  DIIS 
           11        -0.284809146113     -76.340300234590  DIIS 
           12        -0.284809148775     -76.340300237252  DIIS 
           13        -0.284809149386     -76.340300237863  DIIS 
           14        -0.284809149757     -76.340300238234  DIIS 
           15        -0.284809149983     -76.340300238460  DIIS 
           16        -0.284809150036     -76.340300238514  DIIS 
      -----------------------------------------------------------
      A miracle has come to pass. The CC iterations have converged.
      The reference energy is       -76.05549108847711 a.u.
      The correlation energy is      -0.28480915003644 a.u.
      The total energy is           -76.34030023851355 a.u.
 @CHECKOUT-I, Total execution time (CPU/WALL):       29.05/      14.54 seconds.
--executable xvcc finished with status     0 in       14.64 seconds (walltime).
 --invoking executable--
/home/qc/cfour_v2.1_intel_2017_eland2/bin/xlambda
 @GETMEM-I,  Allocated   30517 MB of main memory.
 Hbar is calculated for a CCSD wave function.
 Calculation of Hbar completed.
 @CHECKOUT-I, Total execution time (CPU/WALL):        0.51/       0.28 seconds.
--executable xlambda finished with status     0 in        0.31 seconds (walltime).
 --invoking executable--
/home/qc/cfour_v2.1_intel_2017_eland2/bin/xvip
 @GETMEM-I,  Allocated   30517 MB of main memory.
 IPs are calculated using the EOMIP-CCSD method.
  Summary of active alpha molecular orbitals:
------------------------------------------------------------------------------
Orbital Symm. Eigenvalue  <xx>     <yy>     <zz>     <xy>     <xz>     <yz>
------------------------------------------------------------------------------
    1     1      -1.3331   0.000    0.000    0.000    0.000    0.000    0.000
    2     1      -0.5698   0.000    0.000    0.000    0.000    0.000    0.000
    3     2      -0.5062   0.000    0.000    0.000    0.000    0.000    0.000
    4     3      -0.7064   0.000    0.000    0.000    0.000    0.000    0.000
    5     1       0.0292   0.000    0.000    0.000    0.000    0.000    0.000
    6     1       0.1364   0.000    0.000    0.000    0.000    0.000    0.000
    7     1       0.1727   0.000    0.000    0.000    0.000    0.000    0.000
    8     1       0.2429   0.000    0.000    0.000    0.000    0.000    0.000
    9     1       0.3122   0.000    0.000    0.000    0.000    0.000    0.000
   10     1       0.4301   0.000    0.000    0.000    0.000    0.000    0.000
   11     1       0.6501   0.000    0.000    0.000    0.000    0.000    0.000
   12     1       0.7106   0.000    0.000    0.000    0.000    0.000    0.000
   13     1       0.8156   0.000    0.000    0.000    0.000    0.000    0.000
   14     1       0.8973   0.000    0.000    0.000    0.000    0.000    0.000
   15     1       0.9686   0.000    0.000    0.000    0.000    0.000    0.000
   16     1       1.0105   0.000    0.000    0.000    0.000    0.000    0.000
   17     1       1.1632   0.000    0.000    0.000    0.000    0.000    0.000
   18     1       1.5753   0.000    0.000    0.000    0.000    0.000    0.000
   19     1       1.8133   0.000    0.000    0.000    0.000    0.000    0.000
   20     1       2.0793   0.000    0.000    0.000    0.000    0.000    0.000
   21     1       2.3250   0.000    0.000    0.000    0.000    0.000    0.000
   22     1       2.4020   0.000    0.000    0.000    0.000    0.000    0.000
   23     1       2.4860   0.000    0.000    0.000    0.000    0.000    0.000
   24     1       2.7260   0.000    0.000    0.000    0.000    0.000    0.000
   25     1       3.7187   0.000    0.000    0.000    0.000    0.000    0.000
   26     1       4.1779   0.000    0.000    0.000    0.000    0.000    0.000
   27     1       4.4468   0.000    0.000    0.000    0.000    0.000    0.000
   28     1       4.6511   0.000    0.000    0.000    0.000    0.000    0.000
   29     1       5.1916   0.000    0.000    0.000    0.000    0.000    0.000
   30     1       5.6567   0.000    0.000    0.000    0.000    0.000    0.000
   31     1       6.0728   0.000    0.000    0.000    0.000    0.000    0.000
   32     1       6.7994   0.000    0.000    0.000    0.000    0.000    0.000
   33     1       7.2815   0.000    0.000    0.000    0.000    0.000    0.000
   34     1       7.4517   0.000    0.000    0.000    0.000    0.000    0.000
   35     1       7.8965   0.000    0.000    0.000    0.000    0.000    0.000
   36     1      14.8180   0.000    0.000    0.000    0.000    0.000    0.000
   37     2       0.1596   0.000    0.000    0.000    0.000    0.000    0.000
   38     2       0.3036   0.000    0.000    0.000    0.000    0.000    0.000
   39     2       0.7323   0.000    0.000    0.000    0.000    0.000    0.000
   40     2       0.8399   0.000    0.000    0.000    0.000    0.000    0.000
   41     2       0.9291   0.000    0.000    0.000    0.000    0.000    0.000
   42     2       1.0795   0.000    0.000    0.000    0.000    0.000    0.000
   43     2       1.5758   0.000    0.000    0.000    0.000    0.000    0.000
   44     2       2.2547   0.000    0.000    0.000    0.000    0.000    0.000
   45     2       2.4040   0.000    0.000    0.000    0.000    0.000    0.000
   46     2       2.7118   0.000    0.000    0.000    0.000    0.000    0.000
   47     2       4.0499   0.000    0.000    0.000    0.000    0.000    0.000
   48     2       4.3062   0.000    0.000    0.000    0.000    0.000    0.000
   49     2       4.3737   0.000    0.000    0.000    0.000    0.000    0.000
   50     2       5.4001   0.000    0.000    0.000    0.000    0.000    0.000
   51     2       6.6963   0.000    0.000    0.000    0.000    0.000    0.000
   52     2       7.1061   0.000    0.000    0.000    0.000    0.000    0.000
   53     2       7.2230   0.000    0.000    0.000    0.000    0.000    0.000
   54     3       0.0473   0.000    0.000    0.000    0.000    0.000    0.000
   55     3       0.1819   0.000    0.000    0.000    0.000    0.000    0.000
   56     3       0.2258   0.000    0.000    0.000    0.000    0.000    0.000
   57     3       0.3642   0.000    0.000    0.000    0.000    0.000    0.000
   58     3       0.4601   0.000    0.000    0.000    0.000    0.000    0.000
   59     3       0.6006   0.000    0.000    0.000    0.000    0.000    0.000
   60     3       0.9050   0.000    0.000    0.000    0.000    0.000    0.000
   61     3       0.9262   0.000    0.000    0.000    0.000    0.000    0.000
   62     3       1.0337   0.000    0.000    0.000    0.000    0.000    0.000
   63     3       1.1063   0.000    0.000    0.000    0.000    0.000    0.000
   64     3       1.2725   0.000    0.000    0.000    0.000    0.000    0.000
   65     3       1.7501   0.000    0.000    0.000    0.000    0.000    0.000
   66     3       1.9603   0.000    0.000    0.000    0.000    0.000    0.000
   67     3       2.4392   0.000    0.000    0.000    0.000    0.000    0.000
   68     3       2.7129   0.000    0.000    0.000    0.000    0.000    0.000
   69     3       2.8550   0.000    0.000    0.000    0.000    0.000    0.000
   70     3       3.5800   0.000    0.000    0.000    0.000    0.000    0.000
   71     3       4.1799   0.000    0.000    0.000    0.000    0.000    0.000
   72     3       4.4623   0.000    0.000    0.000    0.000    0.000    0.000
   73     3       4.7143   0.000    0.000    0.000    0.000    0.000    0.000
   74     3       5.0291   0.000    0.000    0.000    0.000    0.000    0.000
   75     3       5.2530   0.000    0.000    0.000    0.000    0.000    0.000
   76     3       6.5494   0.000    0.000    0.000    0.000    0.000    0.000
   77     3       7.3083   0.000    0.000    0.000    0.000    0.000    0.000
   78     3       7.7890   0.000    0.000    0.000    0.000    0.000    0.000
   79     3       8.5914   0.000    0.000    0.000    0.000    0.000    0.000
   80     4       0.2633   0.000    0.000    0.000    0.000    0.000    0.000
   81     4       0.7197   0.000    0.000    0.000    0.000    0.000    0.000
   82     4       0.9158   0.000    0.000    0.000    0.000    0.000    0.000
   83     4       1.1628   0.000    0.000    0.000    0.000    0.000    0.000
   84     4       1.5037   0.000    0.000    0.000    0.000    0.000    0.000
   85     4       2.3096   0.000    0.000    0.000    0.000    0.000    0.000
   86     4       2.8628   0.000    0.000    0.000    0.000    0.000    0.000
   87     4       3.9797   0.000    0.000    0.000    0.000    0.000    0.000
   88     4       4.3670   0.000    0.000    0.000    0.000    0.000    0.000
   89     4       5.0804   0.000    0.000    0.000    0.000    0.000    0.000
   90     4       7.2151   0.000    0.000    0.000    0.000    0.000    0.000
   91     4       7.3633   0.000    0.000    0.000    0.000    0.000    0.000
------------------------------------------------------------------------------
  nsizec is                    331
  @DOEOMIP2-I, right-hand eigenvectors will be computed.
  Beginning symmetry block   2.   1 roots requested.
  1   1  0.5855457755D+00  0.1593351060D+02  0.0000000000D+00  0.4601808599D+00
  2   2  0.5284184381D+00  0.1437899671D+02  0.9945156604D+00  0.8895263004D-01
  3   3  0.5078791893D+00  0.1382009534D+02  0.9968384082D+00  0.2135271182D-01
  4   4  0.5068987693D+00  0.1379341676D+02  0.9998706488D+00  0.4148859190D-02
  L-O-C-K-I-N-G O-N R-O-O-T 
  5   5  0.5067899292D+00  0.1379045507D+02  0.9999966299D+00  0.1008212571D-02
  6   6  0.5067844456D+00  0.1379030585D+02  0.9999997830D+00  0.1777922248D-03
  7   7  0.5067846276D+00  0.1379031080D+02  0.9999999911D+00  0.4742422925D-04
  8   8  0.5067841951D+00  0.1379029903D+02  0.9999999995D+00  0.8645674878D-05
  9   9  0.5067842528D+00  0.1379030060D+02  0.1000000000D+01  0.2086194765D-05
 10  10  0.5067842451D+00  0.1379030040D+02  0.1000000000D+01  0.3928334387D-06
 11  11  0.5067842474D+00  0.1379030046D+02  0.1000000000D+01  0.6834052924D-07
 12  12  0.5067842473D+00  0.1379030046D+02  0.1000000000D+01  0.1172122992D-07
 13  13  0.5067842474D+00  0.1379030046D+02  0.1000000000D+01  0.2210209990D-08
 14  14  0.5067842474D+00  0.1379030046D+02  0.1000000000D+01  0.3643927888D-09
 15  15  0.5067842474D+00  0.1379030046D+02  0.1000000000D+01  0.7109838127D-10
  Converged eigenvalue:   0.506784247382359       a.u.
   Total EOMIP-CCSD electronic energy     -75.83351599113119 a.u.
          --------------------------------
             I    J    A       C(IJA)
          --------------------------------
              0    3    0   -0.6977884404
              3    3   37    0.0370299185
              3    3   41    0.0312489400
              3    3   42    0.0274420683
              4    3   58    0.0272836821
              3    3   38   -0.0264960964
              2    3   14    0.0236161645
              2    3    6    0.0225431936
              4    3   55    0.0216507242
              2    3    9    0.0203193095
              3    3   40    0.0169844877
              1    3   10    0.0159094798
              4    3   62    0.0150515859
              1    3    7    0.0131580144
              2    3   10    0.0129464419
          --------------------------------

  Eigenvector is saved on CCRE_1_1  

  VIP all done  ! 
 @CHECKOUT-I, Total execution time (CPU/WALL):        0.21/       0.14 seconds.
--executable xvip finished with status     0 in        0.17 seconds (walltime).
  The final electronic energy is       -75.833515991131193 a.u. 
  This computation required                           18.02 seconds (walltime).
 
Timing info
28.824u 4.865s 0:18.03 186.7% 0+0k 504+501888io 129pf+0w
 
Scratch space info (BEFORE cleaning //scratch/mdavis)
 
Cleaning up ...
Filesystem      Size  Used Avail Use% Mounted on
/dev/sda9       785G  316G  430G  43% /scratch
 
Scratch space info (AFTER cleaning //scratch/mdavis)
Filesystem      Size  Used Avail Use% Mounted on
/dev/sda9       785G  315G  430G  43% /scratch
