
Host: node6

Timers On : Sat Nov  5 10:16:29 2022
Timers Off: Sat Nov  5 10:16:32 2022

Wall Time:        3.86 seconds


-----------------------------------------------------------

***********************************************************


Host: node6
Host: node6


Timers On : Sat Nov  5 10:16:29 2022
Timers On : Sat Nov  5 10:16:29 2022
Timers Off: Sat Nov  5 10:16:32 2022
Timers Off: Sat Nov  5 10:16:32 2022

Wall Time:        3.86 seconds


Wall Time:        3.87 seconds


-----------------------------------------------------------

-----------------------------------------------------------

***********************************************************

***********************************************************


Host: node6

Host: node6

Timers On : Sat Nov  5 10:16:29 2022
Timers On : Sat Nov  5 10:16:29 2022
Timers Off: Sat Nov  5 10:16:32 2022

Wall Time:        3.86 seconds

Timers Off: Sat Nov  5 10:16:32 2022

-----------------------------------------------------------

Wall Time:        3.86 seconds


***********************************************************

-----------------------------------------------------------

***********************************************************

Host: node7

Timers On : Sat Nov  5 10:16:37 2022
Timers Off: Sat Nov  5 10:16:40 2022

Wall Time:        3.79 seconds


-----------------------------------------------------------

***********************************************************

Host: node7

Timers On : Sat Nov  5 10:16:37 2022

Timers Off: Sat Nov  5 10:16:40 2022
Host: node7


Wall Time:        3.79 seconds


-----------------------------------------------------------

***********************************************************
Timers On : Sat Nov  5 10:16:37 2022
Timers Off: Sat Nov  5 10:16:40 2022


Host: node7
Host: node7


Wall Time:        3.79 seconds



-----------------------------------------------------------

***********************************************************
Timers On : Sat Nov  5 10:16:37 2022
Timers On : Sat Nov  5 10:16:37 2022
Timers Off: Sat Nov  5 10:16:40 2022

Wall Time:        3.79 seconds

Timers Off: Sat Nov  5 10:16:40 2022

-----------------------------------------------------------

***********************************************************

Wall Time:        3.79 seconds


-----------------------------------------------------------

***********************************************************

Host: node4

Timers On : Sat Nov  5 10:16:47 2022
Timers Off: Sat Nov  5 10:16:51 2022

Wall Time:        4.01 seconds


-----------------------------------------------------------

***********************************************************

Host: node4



Host: node4
Timers On : Sat Nov  5 10:16:47 2022

Host: node4


Timers Off: Sat Nov  5 10:16:51 2022
Host: node4
Timers On : Sat Nov  5 10:16:47 2022


Wall Time:        4.01 seconds

Timers Off: Sat Nov  5 10:16:51 2022
Timers On : Sat Nov  5 10:16:47 2022

-----------------------------------------------------------

Wall Time:        4.01 seconds

Timers On : Sat Nov  5 10:16:47 2022
Timers Off: Sat Nov  5 10:16:51 2022

***********************************************************

-----------------------------------------------------------
Timers Off: Sat Nov  5 10:16:51 2022

Wall Time:        4.01 seconds


***********************************************************

-----------------------------------------------------------

Wall Time:        4.01 seconds


***********************************************************

-----------------------------------------------------------

***********************************************************

Host: node18

Timers On : Sat Nov  5 10:16:33 2022
Timers Off: Sat Nov  5 10:16:37 2022

Wall Time:        3.91 seconds


-----------------------------------------------------------

***********************************************************

Host: node18

Timers On : Sat Nov  5 10:16:33 2022
Timers Off: Sat Nov  5 10:16:37 2022

Wall Time:        3.90 seconds


-----------------------------------------------------------

***********************************************************

Host: node18

Timers On : Sat Nov  5 10:16:33 2022
Timers Off: Sat Nov  5 10:16:37 2022

Wall Time:        3.91 seconds


-----------------------------------------------------------

***********************************************************

Host: node5

Timers On : Sat Nov  5 10:16:43 2022
Timers Off: Sat Nov  5 10:16:49 2022

Wall Time:        5.79 seconds


-----------------------------------------------------------

***********************************************************

Host: node5

Timers On : Sat Nov  5 10:16:43 2022
Timers Off: Sat Nov  5 10:16:49 2022

Wall Time:        5.80 seconds


-----------------------------------------------------------

***********************************************************

Host: node5

Timers On : Sat Nov  5 10:16:43 2022
Timers Off: Sat Nov  5 10:16:49 2022

Wall Time:        5.80 seconds


-----------------------------------------------------------

***********************************************************

Host: node5

Timers On : Sat Nov  5 10:16:43 2022
Timers Off: Sat Nov  5 10:16:49 2022

Wall Time:        5.80 seconds


-----------------------------------------------------------

***********************************************************

Host: node5

Timers On : Sat Nov  5 10:16:43 2022
Timers Off: Sat Nov  5 10:16:49 2022

Wall Time:        5.81 seconds


-----------------------------------------------------------

***********************************************************

Host: node16

Timers On : Sat Nov  5 10:16:27 2022
Timers Off: Sat Nov  5 10:16:33 2022

Wall Time:        6.15 seconds


-----------------------------------------------------------

***********************************************************

Host: node16

Timers On : Sat Nov  5 10:16:27 2022
Timers Off: Sat Nov  5 10:16:33 2022

Wall Time:        6.16 seconds


-----------------------------------------------------------

***********************************************************

Host: node16


Host: node16

Timers On : Sat Nov  5 10:16:27 2022
Timers Off: Sat Nov  5 10:16:33 2022
Timers On : Sat Nov  5 10:16:27 2022

Wall Time:        6.17 seconds


-----------------------------------------------------------

***********************************************************
Timers Off: Sat Nov  5 10:16:33 2022

Wall Time:        6.16 seconds


-----------------------------------------------------------

***********************************************************

Host: node16

Timers On : Sat Nov  5 10:16:27 2022
Timers Off: Sat Nov  5 10:16:33 2022

Wall Time:        6.16 seconds


-----------------------------------------------------------

***********************************************************

Host: node10

Timers On : Sat Nov  5 10:16:39 2022
Timers Off: Sat Nov  5 10:16:46 2022

Wall Time:        6.36 seconds


-----------------------------------------------------------

***********************************************************


Host: node10
Host: node10



Host: node10

Timers On : Sat Nov  5 10:16:39 2022
Timers On : Sat Nov  5 10:16:39 2022
Timers On : Sat Nov  5 10:16:39 2022
Timers Off: Sat Nov  5 10:16:46 2022
Timers Off: Sat Nov  5 10:16:46 2022
Timers Off: Sat Nov  5 10:16:46 2022

Wall Time:        6.36 seconds


Wall Time:        6.36 seconds


-----------------------------------------------------------

Wall Time:        6.36 seconds


-----------------------------------------------------------

***********************************************************

-----------------------------------------------------------

***********************************************************

***********************************************************

Host: node10

Timers On : Sat Nov  5 10:16:39 2022
Timers Off: Sat Nov  5 10:16:46 2022

Wall Time:        6.36 seconds


-----------------------------------------------------------

***********************************************************

Host: node8.cl.olemiss.edu

Timers On : Sat Nov  5 10:16:36 2022
Timers Off: Sat Nov  5 10:16:43 2022

Wall Time:        6.93 seconds


-----------------------------------------------------------

***********************************************************

Host: node8.cl.olemiss.edu


Timers On : Sat Nov  5 10:16:36 2022
Host: node8.cl.olemiss.edu
Timers Off: Sat Nov  5 10:16:43 2022


Wall Time:        6.93 seconds



-----------------------------------------------------------

***********************************************************
Host: node8.cl.olemiss.edu
Timers On : Sat Nov  5 10:16:36 2022


Timers Off: Sat Nov  5 10:16:43 2022
Timers On : Sat Nov  5 10:16:36 2022
Host: node8.cl.olemiss.edu

Wall Time:        6.93 seconds

Timers Off: Sat Nov  5 10:16:43 2022

-----------------------------------------------------------

***********************************************************

Wall Time:        6.93 seconds



-----------------------------------------------------------

***********************************************************
Timers On : Sat Nov  5 10:16:36 2022
Timers Off: Sat Nov  5 10:16:43 2022

Wall Time:        6.93 seconds


-----------------------------------------------------------

***********************************************************

Host: node20

Timers On : Sat Nov  5 10:16:38 2022
Timers Off: Sat Nov  5 10:16:44 2022

Wall Time:        6.29 seconds


-----------------------------------------------------------

***********************************************************


Host: node20
Host: node20


Timers On : Sat Nov  5 10:16:38 2022
Timers On : Sat Nov  5 10:16:38 2022
Timers Off: Sat Nov  5 10:16:44 2022
Timers Off: Sat Nov  5 10:16:44 2022

Wall Time:        6.29 seconds


Wall Time:        6.29 seconds


-----------------------------------------------------------

-----------------------------------------------------------

***********************************************************

***********************************************************


Host: node20
Host: node20


Timers On : Sat Nov  5 10:16:38 2022
Timers On : Sat Nov  5 10:16:38 2022
Timers Off: Sat Nov  5 10:16:44 2022

Wall Time:        6.29 seconds

Timers Off: Sat Nov  5 10:16:44 2022

-----------------------------------------------------------

***********************************************************

Wall Time:        6.29 seconds


-----------------------------------------------------------

***********************************************************

Host: node17

Timers On : Sat Nov  5 10:16:33 2022
Timers Off: Sat Nov  5 10:16:40 2022

Wall Time:        6.54 seconds


-----------------------------------------------------------

***********************************************************


Host: node17


Host: node17

Host: node17

Timers On : Sat Nov  5 10:16:33 2022
Timers Off: Sat Nov  5 10:16:40 2022
Timers On : Sat Nov  5 10:16:33 2022

Wall Time:        6.53 seconds

Timers On : Sat Nov  5 10:16:33 2022
Timers Off: Sat Nov  5 10:16:40 2022

-----------------------------------------------------------

***********************************************************
Timers Off: Sat Nov  5 10:16:40 2022

Wall Time:        6.53 seconds


-----------------------------------------------------------

Wall Time:        6.54 seconds


***********************************************************

-----------------------------------------------------------

***********************************************************

Host: node17

Timers On : Sat Nov  5 10:16:33 2022
Timers Off: Sat Nov  5 10:16:40 2022

Wall Time:        6.53 seconds


-----------------------------------------------------------

***********************************************************

Host: node3

Timers On : Sat Nov  5 10:16:46 2022
Timers Off: Sat Nov  5 10:16:52 2022

Wall Time:        6.22 seconds


-----------------------------------------------------------

***********************************************************

Host: node3

Timers On : Sat Nov  5 10:16:46 2022
Timers Off: Sat Nov  5 10:16:52 2022

Wall Time:        6.21 seconds


-----------------------------------------------------------

***********************************************************

Host: node3

Timers On : Sat Nov  5 10:16:46 2022

Timers Off: Sat Nov  5 10:16:52 2022

Wall Time:        6.22 seconds


-----------------------------------------------------------
Host: node3

***********************************************************

Timers On : Sat Nov  5 10:16:46 2022
Timers Off: Sat Nov  5 10:16:52 2022

Wall Time:        6.22 seconds


-----------------------------------------------------------

***********************************************************

Host: node3

Timers On : Sat Nov  5 10:16:46 2022
Timers Off: Sat Nov  5 10:16:52 2022

Wall Time:        6.22 seconds


-----------------------------------------------------------

***********************************************************

Host: node15

Timers On : Sat Nov  5 10:16:39 2022
Timers Off: Sat Nov  5 10:16:45 2022

Wall Time:        5.80 seconds


-----------------------------------------------------------

***********************************************************

Host: node15

Timers On : Sat Nov  5 10:16:39 2022
Timers Off: Sat Nov  5 10:16:45 2022

Wall Time:        5.80 seconds


-----------------------------------------------------------

***********************************************************


Host: node15
Host: node15


Timers On : Sat Nov  5 10:16:39 2022
Timers On : Sat Nov  5 10:16:39 2022
Timers Off: Sat Nov  5 10:16:45 2022
Timers Off: Sat Nov  5 10:16:45 2022

Wall Time:        5.82 seconds


Wall Time:        5.82 seconds


-----------------------------------------------------------

-----------------------------------------------------------

***********************************************************

***********************************************************

Host: node11

Timers On : Sat Nov  5 10:16:39 2022
Timers Off: Sat Nov  5 10:16:43 2022

Wall Time:        4.87 seconds


-----------------------------------------------------------

***********************************************************

Host: node11

Timers On : Sat Nov  5 10:16:39 2022

Timers Off: Sat Nov  5 10:16:43 2022
Host: node11


Wall Time:        4.87 seconds


-----------------------------------------------------------

***********************************************************
Timers On : Sat Nov  5 10:16:39 2022
Timers Off: Sat Nov  5 10:16:43 2022

Wall Time:        4.87 seconds


-----------------------------------------------------------

***********************************************************

Host: node19

Timers On : Sat Nov  5 10:16:48 2022
Timers Off: Sat Nov  5 10:16:53 2022

Wall Time:        5.12 seconds


-----------------------------------------------------------

***********************************************************


Host: node19
Host: node19




Host: node19
Timers On : Sat Nov  5 10:16:48 2022
Host: node19
Timers On : Sat Nov  5 10:16:48 2022

Timers Off: Sat Nov  5 10:16:53 2022

Timers Off: Sat Nov  5 10:16:53 2022

Wall Time:        5.12 seconds

Timers On : Sat Nov  5 10:16:48 2022

-----------------------------------------------------------

Wall Time:        5.12 seconds


***********************************************************
Timers On : Sat Nov  5 10:16:48 2022
Timers Off: Sat Nov  5 10:16:53 2022

-----------------------------------------------------------

***********************************************************

Wall Time:        5.12 seconds

Timers Off: Sat Nov  5 10:16:53 2022

Wall Time:        5.12 seconds


-----------------------------------------------------------

-----------------------------------------------------------

***********************************************************

***********************************************************

Host: node2

Timers On : Sat Nov  5 10:16:38 2022
Timers Off: Sat Nov  5 10:16:43 2022

Wall Time:        5.26 seconds


-----------------------------------------------------------

***********************************************************

Host: node2


Timers On : Sat Nov  5 10:16:38 2022
Host: node2

Timers Off: Sat Nov  5 10:16:43 2022

Wall Time:        5.26 seconds


-----------------------------------------------------------
Timers On : Sat Nov  5 10:16:38 2022

***********************************************************
Timers Off: Sat Nov  5 10:16:43 2022

Wall Time:        5.26 seconds


-----------------------------------------------------------

***********************************************************

Host: node2

Timers On : Sat Nov  5 10:16:38 2022
Timers Off: Sat Nov  5 10:16:43 2022

Wall Time:        5.26 seconds


-----------------------------------------------------------

***********************************************************
