 --invoking executable--
/home/qc/cfour_v2.1_intel_2017_eland2/bin/xjoda


   *************************************************************************
         <<<     CCCCCC     CCCCCC   |||     CCCCCC     CCCCCC   >>>
       <<<      CCC        CCC       |||    CCC        CCC         >>>
      <<<      CCC        CCC        |||   CCC        CCC            >>>
    <<<        CCC        CCC        |||   CCC        CCC              >>>
      <<<      CCC        CCC        |||   CCC        CCC            >>>
       <<<      CCC        CCC       |||    CCC        CCC         >>>
         <<<     CCCCCC     CCCCCC   |||     CCCCCC     CCCCCC   >>>
   *************************************************************************

     ****************************************************************
     * CFOUR Coupled-Cluster techniques for Computational Chemistry *
     ****************************************************************
 

   Department of Chemistry                Institut fuer Physikalische Chemie
   University of Florida                  Universitaet Mainz
   Gainesville, FL 32611, USA             D-55099 Mainz, Germany

   Department of Chemistry                Fakultaet fuer Chemie und Biowiss.
   Johns Hopkins University               Karlsruher Institut fuer Technologie
   Baltimore, MD 21218, USA               D-76131 Karlsruhe, Germany

   Department of Chemistry                Department of Physical Chemistry
   Southern Methodist University          Eotvos Lorand University
   Dallas, TX 75275, USA                  H-1053 Budapest, Hungary

 
                       Version 2.1
 
                     node16                                            
                     Fri 04 Nov 2022 09:26:48 AM CDT                   
                     integer*8 version is running
 
********************************************************************************
*                          Input from ZMAT file                                *
********************************************************************************
h2o AUG-PVTZ CC3                                                                
H        0.0000000000       -1.5507001697       -0.9653339484                   
O        0.0000000000        0.0000000000        0.1144037068                   
H        0.0000000000        1.5507001697       -0.9653339484                   
                                                                                
                                                                                
                                                                                
*CFOUR(CALC=CC3,BASIS=AUG-PVTZ,COORDINATES=CARTESIAN,UNITS=BOHR                 
CC_CONV=9                                                                       
LINEQ_CONV=12                                                                   
SCF_CONV=9                                                                      
ESTATE_CONV=10                                                                  
CHARGE=0                                                                        
MULTIPLICITY=1                                                                  
FROZEN_CORE=ON                                                                  
RELATIVISTIC=OFF                                                                
REFERENCE=RHF                                                                   
EXCITE=EOMIP                                                                    
ESTATE_SYM=0/1/0/0                                                              
MEM_UNIT=GB,MEMORY_SIZE=32)                                                     
                                                                                
H:APVTZ-X2C                                                                     
O:APVTZ-X2C                                                                     
H:APVTZ-X2C                                                                     
                                                                                
********************************************************************************
    -------------------------------------------------------------------
                    CFOUR Control Parameters 
    -------------------------------------------------------------------
        External           Internal           Value            Units
          Name               Name
    -------------------------------------------------------------------
       ABCDTYPE             IABCDT         STANDARD    [  0]    ***   
       ANHARMONIC           IANHAR         OFF         [  0]    ***   
       ANH_ALGORIT          IANALG         STANDARD    [  0]    ***   
       ANH_DERIVAT          IANDER         SECOND      [  1]    ***   
       ANH_MODE             ANHMOD         VIBRATION   [  0]    ***   
       ANH_STEPSIZ          ICUBST             50000          x 10-6  
       ANH_SYMMETR          IANHSM         ABELIAN     [  0]    ***   
       AO_LADDERS           IAOLAD         SINGLEPASS  [  1]    ***   
       AV_SCF               IAVSCF         OFF         [  0]    ***   
       BASIS                IBASIS         AUG-PVTZ    [ 34]    ***   
       BOTHVECTORS          BOTHVC         OFF         [  0]    ***   
       BOX_POTENT           IPIAB          OFF         [  0]    ***   
       BREIT                IBREIT         OFF         [  0]    ***   
       BRUCK_CONV           IBRTOL          10D-  4             ***   
       BRUECKNER            IBRKNR         OFF         [  0]    ***   
       BUFFERSIZE           IBUFFS              4096            ***   
       CACHE_RECS           ICHREC             10               ***   
       CALCLEVEL            ICLLVL         CC3         [ 32]    ***   
       CCORBOPT             ICCORB         OFF         [  0]  x 0.01  
       CC_CONV              ICCCNV          10D-  9             ***   
       CC_EXPORDER          ICCEOR              5               ***   
       CC_EXTRAPOL          ICCEXT         DIIS        [  1]    ***   
       CC_GUESS             ICCGES         MP2         [  0]    ***   
       CC_MAXCYC            ICCCYC            100              cycles 
       CC_PROGRAM           ICCPRO         VCC         [  0]    ***   
       CHARGE               ICHRGE              0               ***   
       CHOLESKY             ICHOLE         OFF         [  0]    ***   
       CIS_CONV             ICISTL              5               ***   
       COMM_SIZE            IPSIZE            ***               ***   
       CONSTANT             ICONST         OLD         [  1]    ***   
       CONTINUUM            ICONTU         NONE        [  0]    ***   
       CONTRACTION          ICNTYP         GENERAL     [  1]    ***   
       COORDINATES          ICOORD         CARTESIAN   [  1]    ***   
       CPHF_CONVER          ICPHFT          10D- 16             ***   
       CPHF_MAXCYC          ICPHFC             64              cycles 
       CUBIC                ICUBIC         OFF         [  0]    ***   
       CURVILINEAR          ICURVY         OFF         [  0]    ***   
       DBOC                 IDBOC          OFF         [  0]    ***   
       DCT                  IDCT           OFF         [  0]    ***   
       DERIV_LEV            IDRLVL         ZERO        [  0]    ***   
       DEVMEM_SIZE          IDVMEM         *********           MByte  
       DIAG_MRCC            IEOMST          10D-  0             ***   
       DIFF_TYPE            IDIFTY         RELAXED     [  0]    ***   
       DIRECT               IDIRCT         OFF         [  0]    ***   
       DROPMO               IDRPMO      NONE         
       ECP                  IECP           OFF         [  0]    ***   
       EIGENVECTOR          IVEC                1               ***   
       EL_ANHARM            IELANH         OFF         [  0]    ***   
       EOMFOLLOW            IEOMSR         ENERGY      [  0]    ***   
       EOMIP                IEOMIP         OFF         [  0]    ***   
       EOMLEVEL             HBARFM         SAME        [  0]    ***   
       EOM_MRCC             IMRCCE         NEW         [  1]    ***   
       EOM_NONIT            EOMNON         OFF         [  0]    ***   
       EOM_NSING            IEOMSI          10D-  0             ***   
       EOM_NSTATES          IMRCCD         DAVIDSON    [  0]    ***   
       EOM_NTRIP            IEOMTR          10D-  0             ***   
       EOM_ORDER            IEXORD         ENERGY      [  0]    ***   
       EOM_PROPSTA          IEOMST              0               ***   
       ESTATE_CONV          IEXTOL          10D- 10             ***   
       ESTATE_DIAG          IEXDIG         ITERATIVE   [  0]    ***   
       ESTATE_LOCK          IESLOC         ON          [  1]    ***   
       ESTATE_MAXC          IEXMXC             40               ***   
       ESTATE_PROP          IEXPRP         OFF         [  0]    ***   
       ESTATE_SYM           IEXSYM   0,  1,  0,  0,
       EVAL_HESS            IRECAL              0            # of cyc.
       EXCITATION           IEXCIT              0               ***   
       EXCITE               IEXCIT         EOMIP       [  4]    ***   
       EXTERN_POT           IEXPOT         OFF         [  0]    ***   
       FCGRADNEW            IFCGNW         OFF         [  0]    ***   
       FC_FIELD             IFINFC              0             x 10-6  
       FD_CALTYPE           IFDCAL         GRADONLY    [  0]    ***   
       FD_PROJECT           IFDPRJ         OFF         [  1]    ***   
       FD_STEPSIZE          IDISFD              0            10-4 bohr
       FD_USEGROUP          IFDGRP         FULL        [  0]    ***   
       FILE_RECSIZ          IFLREC              4096           words  
       FINITE_PERT          IFIPER              0             x 10-6  
       FIXGEOM              IFIXGM         OFF         [  0]    ***   
       FOCK                 IFOCK          AO          [  1]    ***   
       FREQ_ALGORI          IVIALG         STANDARD    [  0]    ***   
       FROZEN_CORE          IFROCO         ON          [  1]    ***   
       GAMMA_ABCD           IGABCD         STORE       [  0]    ***   
       GAMMA_ABCI           IGABCI         STORE       [  0]    ***   
       GENBAS_1             IGNBS1              0               ***   
       GENBAS_2             IGNBS2              0               ***   
       GENBAS_3             IGNBS3              0               ***   
       GENBAS_4             IGNBS4              0               ***   
       GEO_CONV             ICONTL              5              H/bohr 
       GEO_MAXCYC           IOPTCY             50               ***   
       GEO_MAXSTEP          IMXSTP            300            millibohr
       GEO_METHOD           INR            SINGLE_POINT[  5]    ***   
       GIAO                 IGIAO          OFF         [  1]    ***   
       GIMIC                IGIMIC         OFF         [  0]    ***   
       GRID                 IGRID          OFF         [  0]    ***   
       GRID_ALGO            IGALGO         SERIAL      [  0]    ***   
       GUESS                IGUESS         MOREAD      [  0]    ***   
       HBAR                 IHBAR          ON          [  1]    ***   
       HESS_TYPE            IHESTP         SCF         [  0]    ***   
       HF2_FILE             IHF2Fl         USE         [  1]    ***   
       HFSTABILITY          ISTABL         OFF         [  0]    ***   
       INCORE               INCORE         OFF         [  0]    ***   
       INPUT_MRCC           IMRCC          ON          [  1]    ***   
       INTEGRALS            INTTYP         VMOL        [  1]    ***   
       JODA_PRINT           IJPRNT              0               ***   
       KEYWORD_OUT          IDMPKW         NO          [  0]    ***   
       LINDEP_TOL           ILINDP              8               ***   
       LINEQ_CONV           IZTACN          10D- 12           cycles  
       LINEQ_EXPOR          ILMAXD              5               ***   
       LINEQ_MAXCY          ILMAXC            100               ***   
       LINEQ_TYPE           ILTYPE         DIIS        [  1]    ***   
       LOCK_ORBOCC          ILOCOC         OFF         [  0]    ***   
       MEMORY_SIZE          IMEMSZ         *********           words  
       MEM_UNIT             IMEMU          GB          [  3]    ***   
       MRCC                 IMRCCC         OFF         [  0]    ***   
       MULTIPLICTY          IMULTP              1               ***   
       NACOUPLING           IVCOUP         OFF         [  0]    ***   
       NEGEVAL              IDIE           ABORT       [  0]    ***   
       NEWNORM              INEWNO         OFF         [  0]    ***   
       NON-HF               INONHF         OFF         [  0]    ***   
       NTOP_TAMP            ITOPT2             15               ***   
       NUC_MODEL            INUCMO         POINT       [  0]    ***   
       OCCUPATION           IOCCU   ESTIMATED BY SCF 
       OPEN-SHELL           IOPEN          SPIN-ORBITAL[  0]    ***   
       OPTVIB               IOPTVB         OFF         [  0]    ***   
       ORBITALS             IORBTP         STANDARD    [  0]    ***   
       PARALLEL             IPARAL         ON          [  1]    ***   
       PARA_INT             IPINTS         ON          [  1]    ***   
       PARA_PRINT           IPPRIN              0               ***   
       PERT_ORB             IPTORB         STANDARD    [  0]    ***   
       POINTS               IGRDFD              0               ***   
       PRINT                IPRNT               0               ***   
       PROPS                IPROPS         OFF         [  0]    ***   
       PROP_INTEGR          IINTYP         INTERNAL    [  0]    ***   
       PSI                  IPSI           OFF         [  0]    ***   
       QC_ALG               IQCALG         FLM         [  0]    ***   
       QC_LINALG            IQCLIN         TRIDIAG     [  2]    ***   
       QC_MAXCYC            IQCMAX          10D-100           cycles  
       QC_MAXSCFCY          IQCMSC          10D- 15           cycles  
       QC_RTRUST            IQCRTR          10D-  0           x 10-3  
       QC_SKIPSCF           IQCSKI         OFF         [  0]    ***   
       QC_START             IQCSTA          10D-  1             ***   
       QRHFGUESS            IQGUES         OFF         [  0]    ***   
       QUARTIC              IQUART         OFF         [  0]    ***   
       RAMAN_INT            IRAMIN         OFF         [  0]    ***   
       RAMAN_ORB            IRAMRE         UNRELAXED   [  0]    ***   
       RDO                  IRDOFM         OFF         [  0]    ***   
       REDUCE_REPR          REDREP         Ir          [  0]    ***   
       REFERENCE            IREFNC         RHF         [  0]    ***   
       RELATIVIST           IRELAT         OFF         [  0]    ***   
       RELAX_DENS           IRDENS         OFF         [  0]    ***   
       RESET_FLAGS          IRESET         OFF         [  0]    ***   
       RESTART_CC           ICCRES         OFF         [  0]    ***   
       ROT_EVEC             ROTVEC              0               ***   
       SAVE_INTS            ISVINT         OFF         [  0]    ***   
       SCALE_ON             ISTCRT              0               ***   
       SCF_CONV             ISCFCV          10D-  9             ***   
       SCF_DAMPING          IDAMP               0             x 10-3  
       SCF_EXPORDE          IRPPOR              6               ***   
       SCF_EXPSTAR          IRPPLS              8               ***   
       SCF_EXTRAPO          IRPP           ON          [  1]    ***   
       SCF_MAXCYC           ISCFCY            150              cycles 
       SCF_NOSTOP           ISCFST         OFF         [  0]    ***   
       SCF_PRINT            ISCFPR              0               ***   
       SCF_PROG             ISCFPR         SCF         [  0]    ***   
       SD_FIELD             IFINSD              0             x 10-6  
       SOPERT               IPERSO         OFF         [  0]    ***   
       SPHERICAL            IDFGHI         ON          [  1]    ***   
       SPINORBIT            ISOCAL         OFF         [  0]    ***   
       SPINROTATIO          ISRCON         OFF         [  0]    ***   
       SPIN_FLIP            ISPFLP         OFF         [  0]    ***   
       SPIN_ORBIT           ISPORB         OFF         [  0]    ***   
       SPIN_SCAL            ISCSMP         OFF         [  0]    ***   
       STEEPSCALE           ISTPSC              1000          x 10-3  
       SUBGROUP             ISUBGP         DEFAULT     [  0]    ***   
       SUBGRPAXIS           ISBXYZ         X           [  0]    ***   
       SYMMETRY             ISYM           ON          [  0]    ***   
       SYM_CHECK            ISYMCK         OVERRIDE    [  1]    ***   
       T3_EXTRAPOL          IT3EXT         OFF         [  0]    ***   
       T4_EXTRAPOL          IT4EXP         OFF         [  0]    ***   
       TAMP_SUM             IEVERY              5               ***   
       TESTSUITE            ITESTS         OFF         [  0]    ***   
       THERMOCH             ITHERM         OFF         [  0]    ***   
       TOL_CHOLESK          ITOLCH          10D-  4             ***   
       TRANGRAD             IRESRM         OFF         [  0]    ***   
       TRANS_INV            ITRAIN         USE         [  0]    ***   
       TREAT_PERT           ITREAT         SIMULTANEOUS[  0]    ***   
       TRIP_ALGORI          ITRALG         NORMAL      [  0]    ***   
       UIJ_THRESHO          IUIJTH              1               ***   
       UNITS                IUNITS         BOHR        [  1]    ***   
       UNOS                 IUNOS          OFF         [  0]    ***   
       UPDATE_HESS          IHUPDT         ON          [  1]    ***   
       VIBPHASE             ISETPH         STANDARD    [  0]    ***   
       VIBRATION            IVIB           NO          [  0]    ***   
       VIB_ALGORIT          IGEALG         STANDARD    [  0]    ***   
       VNATORB              IVNORB         OFF         [  0]    ***   
       VTRAN                IVTRAN         FULL/PARTIAL[  0]    ***   
       XFIELD               IXEFLD              0             x 10-6  
       XFORM_TOL            IXFTOL          10D- 11             ***   
       YFIELD               IYEFLD              0             x 10-6  
       ZFIELD               IZEFLD              0             x 10-6  
       ZSCALE_EXP           IZEXPS         OFF         [  0]    ***   
    -------------------------------------------------------------------
  @GETXYZ-I,     3 atoms read from ZMAT.
   Rotational constants (in cm-1): 
          8.6819456465            12.4200591595            28.8461755307
   Rotational constants (in MHz): 
     260278.2190238618        372344.0585587383        864786.7077783690
********************************************************************************
   The full molecular point group is C2v .
   The largest Abelian subgroup of the full molecular point group is C2v .
   The computational point group is C2v .
********************************************************************************


 ----------------------------------------------------------------
         Coordinates used in calculation (QCOMP) 
 ----------------------------------------------------------------
 Z-matrix   Atomic            Coordinates (in bohr)
  Symbol    Number           X              Y              Z
 ----------------------------------------------------------------
     H         1         0.00000000    -1.55070017    -0.95889895
     O         8         0.00000000     0.00000000     0.12083870
     H         1         0.00000000     1.55070017    -0.95889895
 ----------------------------------------------------------------
 
   Interatomic distance matrix (Angstroms) 
 
                 H             O             H    
                [ 1]        [ 2]        [ 3]
  H    [ 1]     0.00000
  O    [ 2]     0.99992     0.00000
  H    [ 3]     1.64119     0.99992     0.00000
 rotcon2
   Rotational constants (in cm-1): 
          8.6819456465            28.8461755307            12.4200591595
   Rotational constants (in MHz): 
     260278.2190238618        864786.7077783690        372344.0585587383
  There is   1 frozen-core orbital.
  There are   92 basis functions.
 @GEOPT-W, Archive file not created for single-point calculation.
 @CHECKOUT-I, Total execution time (CPU/WALL):        0.11/       0.13 seconds.
--executable xjoda finished with status     0 in        0.15 seconds (walltime).
 --invoking executable--
/home/qc/cfour_v2.1_intel_2017_eland2/bin/xvmol
 SERIAL VERSION OF MOLECULE STARTED
********************************************************************************
                    INPUT FROM MOL FILE
********************************************************************************
INTGRL        1    0    1    0    0    0    0    0    0                         
         *** CFOUR Program System (Release V0.1) ***                            
h2o AUG-PVTZ CC3                                                                
    2    2 X  Y       0.10E-08              0    0                              
   9999.00      3.00                                                            
          1.00000000    1    3    1    1    1                                   
H #1   0.000000000000000  -1.550700169700000  -0.958898952108946                
    6    4                                                                      
   33.8700000000000       6.068000000000000E-003  0.000000000000000E+000        
  0.000000000000000E+000  0.000000000000000E+000                                
   5.09500000000000       4.530800000000000E-002  0.000000000000000E+000        
  0.000000000000000E+000  0.000000000000000E+000                                
   1.15900000000000       0.202822000000000       0.000000000000000E+000        
  0.000000000000000E+000  0.000000000000000E+000                                
  0.325800000000000       0.503903000000000        1.00000000000000             
  0.000000000000000E+000  0.000000000000000E+000                                
  0.102700000000000       0.383421000000000       0.000000000000000E+000        
   1.00000000000000       0.000000000000000E+000                                
  2.526000000000000E-002  0.000000000000000E+000  0.000000000000000E+000        
  0.000000000000000E+000   1.00000000000000                                     
    3    3                                                                      
   1.40700000000000        1.00000000000000       0.000000000000000E+000        
  0.000000000000000E+000                                                        
  0.388000000000000       0.000000000000000E+000   1.00000000000000             
  0.000000000000000E+000                                                        
  0.102000000000000       0.000000000000000E+000  0.000000000000000E+000        
   1.00000000000000                                                             
    2    2                                                                      
   1.05700000000000        1.00000000000000       0.000000000000000E+000        
  0.247000000000000       0.000000000000000E+000   1.00000000000000             
          8.00000000    1    4    1    1    1    1                              
O #2   0.000000000000000   0.000000000000000   0.120838703091054                
   11    5                                                                      
   15330.0000000000       5.080000000000000E-004 -1.150000000000000E-004        
  0.000000000000000E+000  0.000000000000000E+000  0.000000000000000E+000        
   2299.00000000000       3.929000000000000E-003 -8.950000000000000E-004        
  0.000000000000000E+000  0.000000000000000E+000  0.000000000000000E+000        
   522.400000000000       2.024300000000000E-002 -4.636000000000000E-003        
  0.000000000000000E+000  0.000000000000000E+000  0.000000000000000E+000        
   147.300000000000       7.918100000000000E-002 -1.872400000000000E-002        
  0.000000000000000E+000  0.000000000000000E+000  0.000000000000000E+000        
   47.5500000000000       0.230687000000000      -5.846300000000000E-002        
  0.000000000000000E+000  0.000000000000000E+000  0.000000000000000E+000        
   16.7600000000000       0.433118000000000      -0.136463000000000             
  0.000000000000000E+000  0.000000000000000E+000  0.000000000000000E+000        
   6.20700000000000       0.350260000000000      -0.175740000000000             
  0.000000000000000E+000  0.000000000000000E+000  0.000000000000000E+000        
   1.75200000000000       4.272800000000000E-002  0.160934000000000             
   1.00000000000000       0.000000000000000E+000  0.000000000000000E+000        
  0.688200000000000      -8.154000000000000E-003  0.603418000000000             
  0.000000000000000E+000  0.000000000000000E+000  0.000000000000000E+000        
  0.238400000000000       2.381000000000000E-003  0.378765000000000             
  0.000000000000000E+000   1.00000000000000       0.000000000000000E+000        
  7.376000000000001E-002  0.000000000000000E+000  0.000000000000000E+000        
  0.000000000000000E+000  0.000000000000000E+000   1.00000000000000             
    6    4                                                                      
   34.4600000000000       1.592800000000000E-002  0.000000000000000E+000        
  0.000000000000000E+000  0.000000000000000E+000                                
   7.74900000000000       9.974000000000000E-002  0.000000000000000E+000        
  0.000000000000000E+000  0.000000000000000E+000                                
   2.28000000000000       0.310492000000000       0.000000000000000E+000        
  0.000000000000000E+000  0.000000000000000E+000                                
  0.715600000000000       0.491026000000000        1.00000000000000             
  0.000000000000000E+000  0.000000000000000E+000                                
  0.214000000000000       0.336337000000000       0.000000000000000E+000        
   1.00000000000000       0.000000000000000E+000                                
  5.974000000000000E-002  0.000000000000000E+000  0.000000000000000E+000        
  0.000000000000000E+000   1.00000000000000                                     
    3    3                                                                      
   2.31400000000000        1.00000000000000       0.000000000000000E+000        
  0.000000000000000E+000                                                        
  0.645000000000000       0.000000000000000E+000   1.00000000000000             
  0.000000000000000E+000                                                        
  0.214000000000000       0.000000000000000E+000  0.000000000000000E+000        
   1.00000000000000                                                             
    2    2                                                                      
   1.42800000000000        1.00000000000000       0.000000000000000E+000        
  0.500000000000000       0.000000000000000E+000   1.00000000000000             
FINISH                                                                          
 
********************************************************************************
 ONE- AND TWO-ELECTRON INTEGRALS OVER SYMMETRY-ADAPTED AOS ARE CALCULATED.

  SPHERICAL HARMONICS ARE USED.
  
  INTEGRALS LESS THAN  0.10E-13 ARE NEGLECTED.

  NUCLEAR REPULSION ENERGY :    8.7899347952 A.U.
  @MOLECU-I, ONE ELECTRON INTEGRALS (CPU/WALL):        0.01/       0.02 SECONDS.
  @TWOEL-I,     262933 INTEGRALS OF SYMMETRY TYPE  I I I I
  @TWOEL-I,     865293 INTEGRALS OF SYMMETRY TYPE  I J I J
  @TWOEL-I,     466389 INTEGRALS OF SYMMETRY TYPE  I I J J
  @TWOEL-I,     575256 INTEGRALS OF SYMMETRY TYPE  I J K L
  @TWOEL-I, TOTAL NUMBER OF 2-E INTEGRALS    2169871.
  @MOLECU-I, TWO ELECTRON INTEGRALS (CPU/WALL):        0.70/       0.70 SECONDS.
 @CHECKOUT-I, Total execution time (CPU/WALL):        0.72/       0.72 seconds.

OMP_NUM_THREADS not specified; defaulting to 1
Running with 1 threads/proc

--executable xvmol finished with status     0 in        0.74 seconds (walltime).
 --invoking executable--
/home/qc/cfour_v2.1_intel_2017_eland2/bin/xvmol2ja
 @GETMEM-I,  Allocated   30517 MB of main memory.
 @CHECKOUT-I, Total execution time (CPU/WALL):        0.02/       0.01 seconds.
--executable xvmol2ja finished with status     0 in        0.03 seconds (walltime).
 --invoking executable--
/home/qc/cfour_v2.1_intel_2017_eland2/bin/xvscf
  There are   92 functions in the AO basis.

  There are 4 irreducible representations.

       Irrep        # of functions
         1                 35
         2                 18
         3                 27
         4                 12


  Parameters for SCF calculation: 
        SCF reference function:  RHF  
  Maximum number of iterations:  150
     Full symmetry point group: C2v 
     Computational point group: C2v 
        Initial density matrix: MOREAD                 
     SCF convergence tolerance: 10**(- 9)
  DIIS convergence acceleration:  ON
          Latest start for DIIS:   8
                     DIIS order:   6

  Memory information:     401180 words required.
  Fock matrices are constructed from AO integral file.
 @GETMEM-I,  Allocated       3 MB of main memory.
  Initialization and symmetry analysis required      0.001 seconds.

  @INITGES-I, Occupancies from core Hamiltonian:

          Alpha population by irrep:   3    1    1    0
           Beta population by irrep:   3    1    1    0


 total no. of electrons in initial guess :  0.000000000000000E+000
  --------------------------------------------------------------------
  Iteration         Total Energy            Largest Density Difference
  --------------------------------------------------------------------
       0             8.789934795196020              0.0000000000D+00
   current occupation vector 
     3  1  1  0
     3  1  1  0
       1           -61.241843947196898              0.1230569052D+02
   current occupation vector 
     3  1  1  0
     3  1  1  0
       2           -63.679567874462819              0.2895077798D+02
   current occupation vector 
     3  0  2  0
     3  0  2  0
       3           -70.779207553430354              0.2897770829D+02
   current occupation vector 
     3  1  1  0
     3  1  1  0
       4           -67.775985045901024              0.2482639688D+02
   current occupation vector 
     3  0  2  0
     3  0  2  0
       5           -72.142051668995080              0.2482595561D+02
   current occupation vector 
     3  1  1  0
     3  1  1  0
       6           -68.745340101591466              0.2329720043D+02
   current occupation vector 
     3  0  2  0
     3  0  2  0
       7           -72.513036546475504              0.2329732132D+02
   current occupation vector 
     3  1  1  0
     3  1  1  0
       8           -69.011467675834567              0.2290698574D+02
   current occupation vector 
     3  0  2  0
     3  0  2  0
       9           -75.758914137742565              0.2290790164D+02
   current occupation vector 
     3  1  1  0
     3  1  1  0
      10           -76.042933196989623              0.5313114355D+00
   current occupation vector 
     3  1  1  0
     3  1  1  0
      11           -76.053498603284680              0.9050687915D-01
   current occupation vector 
     3  1  1  0
     3  1  1  0
      12           -76.053625778964999              0.1182991731D-01
   current occupation vector 
     3  1  1  0
     3  1  1  0
      13           -76.053637655532640              0.3830874991D-02
   current occupation vector 
     3  1  1  0
     3  1  1  0
      14           -76.053639607804769              0.2291773888D-02
   current occupation vector 
     3  1  1  0
     3  1  1  0
      15           -76.053639647216897              0.3565504281D-03
   current occupation vector 
     3  1  1  0
     3  1  1  0
      16           -76.053639647930382              0.3396225879D-04
   current occupation vector 
     3  1  1  0
     3  1  1  0
      17           -76.053639648013558              0.1745931728D-04
   current occupation vector 
     3  1  1  0
     3  1  1  0
      18           -76.053639648015704              0.3062125624D-05
   current occupation vector 
     3  1  1  0
     3  1  1  0
      19           -76.053639648015917              0.3096569758D-06
   current occupation vector 
     3  1  1  0
     3  1  1  0
      20           -76.053639648015334              0.3575204277D-07
   current occupation vector 
     3  1  1  0
     3  1  1  0
      21           -76.053639648016102              0.8679323621D-08
   current occupation vector 
     3  1  1  0
     3  1  1  0
      22           -76.053639648015789              0.1251881682D-08
   current occupation vector 
     3  1  1  0
     3  1  1  0

  SCF has converged.

 Density matrix saved to file den.dat
 total electron number:   10.0000000000000     
     E(SCF)=       -76.053639648016002              0.4591085845D-09

  Eigenvector printing suppressed.

 @PUTMOS-I, Writing converged MOs to NEWMOS. 
 @PUTMOS-I, Symmetry   1 Full Blocks  8 Partial Blocksize   3
 @PUTMOS-I, Symmetry   2 Full Blocks  4 Partial Blocksize   2
 @PUTMOS-I, Symmetry   3 Full Blocks  6 Partial Blocksize   3
 @PUTMOS-I, Symmetry   4 Full Blocks  3 Partial Blocksize   0
 @PUTFOCK-I, Writing converged Fock matrix to NEWFOCK. 
 @PUTFOCK-I, Symmetry   1 Full Blocks  8 Partial Blocksize   3
 @PUTFOCK-I, Symmetry   2 Full Blocks  4 Partial Blocksize   2
 @PUTFOCK-I, Symmetry   3 Full Blocks  6 Partial Blocksize   3
 @PUTFOCK-I, Symmetry   4 Full Blocks  3 Partial Blocksize   0


 
  ORBITAL EIGENVALUES (ALPHA)  (1H = 27.2113834 eV)

       MO #        E(hartree)               E(eV)           FULLSYM    COMPSYM
       ----   --------------------   --------------------   -------   ---------
    1     1         -20.5716465283        -559.7829608507      A1        A1 (1)
    2     2          -1.3289198920         -36.1617486884      A1        A1 (1)
    3    54          -0.7049524833         -19.1827323022      B2        B2 (3)
    4     3          -0.5657835767         -15.3957538281      A1        A1 (1)
    5    36          -0.5051347598         -13.7454156163      B1        B1 (2)
  +++++++++++++++++++++++++++++++++++++++++++++++++++++++++++++++++++++++++++++
    6     4           0.0291916073           0.7943440174      A1        A1 (1)
    7    55           0.0471335106           1.2825680278      B2        B2 (3)
    8     5           0.1364662447           3.7134353065      A1        A1 (1)
    9    37           0.1597394367           4.3467310568      B1        B1 (2)
   10     6           0.1719242098           4.6782955875      A1        A1 (1)
   11    56           0.1814854121           4.9384691304      B2        B2 (3)
   12    57           0.2257114270           6.1419201788      B2        B2 (3)
   13     7           0.2423603478           6.5949603462      A1        A1 (1)
   14    81           0.2627138869           7.1488082996      A2        A2 (4)
   15    38           0.3048049551           8.2941644964      B1        B1 (2)
   16     8           0.3129807850           8.5166401368      A1        A1 (1)
   17    58           0.3639401250           9.9033142764      B2        B2 (3)
   18     9           0.4281843378          11.6514881828      A1        A1 (1)
   19    59           0.4588392313          12.4856502414      B2        B2 (3)
   20    60           0.6012123596          16.3598200211      B2        B2 (3)
   21    10           0.6477424598          17.6259684194      A1        A1 (1)
   22    11           0.7114717325          19.3601300916      A1        A1 (1)
   23    82           0.7188128055          19.5598908420      A2        A2 (4)
   24    39           0.7319532367          19.9174601558      B1        B1 (2)
   25    12           0.8122023750          22.1011502240      A1        A1 (1)
   26    40           0.8388554502          22.8264172713      B1        B1 (2)
   27    13           0.8986485231          24.4534695039      A1        A1 (1)
   28    61           0.9030725367          24.5738530334      B2        B2 (3)
   29    83           0.9138998527          24.8684792818      A2        A2 (4)
   30    62           0.9261372615          25.2014761036      B2        B2 (3)
   31    41           0.9322429319          25.3676198425      B1        B1 (2)
   32    14           0.9712669014          26.4295160385      A1        A1 (1)
   33    15           1.0088688849          27.4527180270      A1        A1 (1)
   34    63           1.0318289532          28.0774932495      B2        B2 (3)
   35    42           1.0788271566          29.3563793793      B1        B1 (2)
   36    64           1.1067701404          30.1167466260      B2        B2 (3)
   37    16           1.1583479827          31.5202510676      A1        A1 (1)
   38    84           1.1590032616          31.5380821133      A2        A2 (4)
   39    65           1.2755285258          34.7088957532      B2        B2 (3)
   40    85           1.5034878266          40.9119836878      A2        A2 (4)
   41    43           1.5750532480          42.8593778077      B1        B1 (2)
   42    17           1.5867424539          43.1774572688      A1        A1 (1)
   43    66           1.7305122609          47.0896326093      B2        B2 (3)
   44    18           1.8142798777          49.3690653470      A1        A1 (1)
   45    67           1.9566718988          53.2437492257      B2        B2 (3)
   46    19           2.0709964056          56.3546772136      A1        A1 (1)
   47    44           2.2524187414          61.2914299499      B1        B1 (2)
   48    86           2.3086656201          62.8219853317      A2        A2 (4)
   49    20           2.3228807546          63.2087988046      A1        A1 (1)
   50    21           2.3963099622          65.2069091260      A1        A1 (1)
   51    45           2.3986161103          65.2696626078      B1        B1 (2)
   52    68           2.4378094185          66.3361667416      B2        B2 (3)
   53    22           2.4909455454          67.7820742654      A1        A1 (1)
   54    46           2.7161146893          73.9092381695      B1        B1 (2)
   55    23           2.7168228431          73.9285080139      A1        A1 (1)
   56    69           2.7223845417          74.0798495276      B2        B2 (3)
   57    87           2.8569523844          77.7416266879      A2        A2 (4)
   58    70           2.8685448425          78.0570735096      B2        B2 (3)
   59    71           3.5611224456          96.9030682007      B2        B2 (3)
   60    24           3.7124800096         101.0217169055      A1        A1 (1)
   61    88           3.9740945909         108.1406115817      A2        A2 (4)
   62    47           4.0429544972         110.0143848931      B1        B1 (2)
   63    72           4.1658540895         113.3586528174      B2        B2 (3)
   64    25           4.1759671615         113.6338434977      A1        A1 (1)
   65    48           4.3025574968         117.0785416451      B1        B1 (2)
   66    89           4.3665253915         118.8191965546      A2        A2 (4)
   67    49           4.3718796366         118.9648929694      B1        B1 (2)
   68    73           4.4486224032         121.0531698148      B2        B2 (3)
   69    26           4.4746035570         121.7601529526      A1        A1 (1)
   70    27           4.6298872952         125.9856382885      A1        A1 (1)
   71    74           4.6813917909         127.3871468682      B2        B2 (3)
   72    75           5.0054392152         136.2049255697      B2        B2 (3)
   73    90           5.0681461410         137.9112677707      A2        A2 (4)
   74    28           5.1622770036         140.4726987624      A1        A1 (1)
   75    76           5.2579179155         143.0752202856      B2        B2 (3)
   76    50           5.3724992835         146.1931378208      B1        B1 (2)
   77    29           5.6544007470         153.8640666241      A1        A1 (1)
   78    30           6.0434833322         164.4515420229      A1        A1 (1)
   79    77           6.5608558975         178.5299652579      B2        B2 (3)
   80    51           6.6926067714         182.1150888023      B1        B1 (2)
   81    31           6.7813336015         184.5294685926      A1        A1 (1)
   82    52           7.1024443906         193.2673373892      B1        B1 (2)
   83    91           7.1917618009         195.6977876866      A2        A2 (4)
   84    53           7.2174685914         196.3973050167      B1        B1 (2)
   85    32           7.2693468329         197.8089837385      A1        A1 (1)
   86    78           7.3175842858         199.1215915631      B2        B2 (3)
   87    92           7.3661681865         200.4436267120      A2        A2 (4)
   88    33           7.4374848485         202.3842517450      A1        A1 (1)
   89    79           7.7593229361         211.1419113376      B2        B2 (3)
   90    34           7.8958913976         214.8581281043      A1        A1 (1)
   91    80           8.5418621063         232.4358847242      B2        B2 (3)
   92    35          14.6411283902         398.4053580336      A1        A1 (1)


  VSCF finished.

 @CHECKOUT-I, Total execution time (CPU/WALL):        0.79/       0.55 seconds.
--executable xvscf finished with status     0 in        0.57 seconds (walltime).
 --invoking executable--
/home/qc/cfour_v2.1_intel_2017_eland2/bin/xvtran
 @GETMEM-I,  Allocated   30517 MB of main memory.
  Full RHF integral transformation
  The following   1 MOs will be dropped:
    1
  There are  91 active molecular orbitals.
  Transformation of IIII integrals :
  1 pass through the AO integral file was required.
      262933 AO integrals were read.
      266728 MO integrals were written to HF2.
  Transformation of IIJJ integrals :
  1 pass through the AO integral file was required.
      466389 AO integrals were read.
      480525 MO integrals were written to HF2.
  Transformation of IJIJ integrals :
  1 pass through the AO integral file was required.
      865293 AO integrals were read.
      887262 MO integrals were written to HF2.
  Transformation of IJKL integrals :
  1 pass through the AO integral file was required.
      575256 AO integrals were read.
      594864 MO integrals were written to HF2.
  Summary of active molecular orbitals: 
------------------------------------------------------------------------
 
  Index      Eigenvalue    Symmetry    Index      Eigenvalue    Symmetry
------------------------------------------------------------------------
     1        -1.3289199        1        47         4.0429545        2
     2        -0.5657836        1        48         4.3025575        2
     3        -0.5051348        2        49         4.3718796        2
     4        -0.7049525        3        50         5.3724993        2
     5         0.0291916        1        51         6.6926068        2
     6         0.1364662        1        52         7.1024444        2
     7         0.1719242        1        53         7.2174686        2
     8         0.2423603        1        54         0.0471335        3
     9         0.3129808        1        55         0.1814854        3
    10         0.4281843        1        56         0.2257114        3
    11         0.6477425        1        57         0.3639401        3
    12         0.7114717        1        58         0.4588392        3
    13         0.8122024        1        59         0.6012124        3
    14         0.8986485        1        60         0.9030725        3
    15         0.9712669        1        61         0.9261373        3
    16         1.0088689        1        62         1.0318290        3
    17         1.1583480        1        63         1.1067701        3
    18         1.5867425        1        64         1.2755285        3
    19         1.8142799        1        65         1.7305123        3
    20         2.0709964        1        66         1.9566719        3
    21         2.3228808        1        67         2.4378094        3
    22         2.3963100        1        68         2.7223845        3
    23         2.4909455        1        69         2.8685448        3
    24         2.7168228        1        70         3.5611224        3
    25         3.7124800        1        71         4.1658541        3
    26         4.1759672        1        72         4.4486224        3
    27         4.4746036        1        73         4.6813918        3
    28         4.6298873        1        74         5.0054392        3
    29         5.1622770        1        75         5.2579179        3
    30         5.6544007        1        76         6.5608559        3
    31         6.0434833        1        77         7.3175843        3
    32         6.7813336        1        78         7.7593229        3
    33         7.2693468        1        79         8.5418621        3
    34         7.4374848        1        80         0.2627139        4
    35         7.8958914        1        81         0.7188128        4
    36        14.6411284        1        82         0.9138999        4
    37         0.1597394        2        83         1.1590033        4
    38         0.3048050        2        84         1.5034878        4
    39         0.7319532        2        85         2.3086656        4
    40         0.8388555        2        86         2.8569524        4
    41         0.9322429        2        87         3.9740946        4
    42         1.0788272        2        88         4.3665254        4
    43         1.5750532        2        89         5.0681461        4
    44         2.2524187        2        90         7.1917618        4
    45         2.3986161        2        91         7.3661682        4
    46         2.7161147        2
------------------------------------------------------------------------
  -1.32891989197421      -0.565783576740771      -0.505134759751524     
 -0.704952483311269       2.919160726619734E-002  0.136466244728366     
  0.171924209757393       0.242360347845936       0.312980784974509     
  0.428184337839919       0.647742459847382       0.711471732509249     
  0.812202374982058       0.898648523100432       0.971266901429276     
   1.00886888488641        1.15834798268884        1.58674245385178     
   1.81427987769974        2.07099640562770        2.32288075455280     
   2.39630996217729        2.49094554543510        2.71682284311407     
   3.71248000958029        4.17596716151020        4.47460355700129     
   4.62988729520074        5.16227700361594        5.65440074700796     
   6.04348333215765        6.78133360145792        7.26934683293323     
   7.43748484852959        7.89589139757862        14.6411283901705     
  0.159739436723993       0.304804955136616       0.731953236741710     
  0.838855450151811       0.932242931922363        1.07882715655193     
   1.57505324803677        2.25241874141344        2.39861611033539     
   2.71611468932159        4.04295449723646        4.30255749676661     
   4.37187963657010        5.37249928354549        6.69260677141125     
   7.10244439057930        7.21746859135043       4.713351059537442E-002
  0.181485412107504       0.225711427035242       0.363940125013605     
  0.458839231283158       0.601212359571125       0.903072536673353     
  0.926137261496808        1.03182895322936        1.10677014039546     
   1.27552852580100        1.73051226088351        1.95667189877838     
   2.43780941845131        2.72238454174387        2.86854484250925     
   3.56112244556745        4.16585408948342        4.44862240318233     
   4.68139179091538        5.00543921518322        5.25791791554485     
   6.56085589745784        7.31758428581570        7.75932293606103     
   8.54186210628984       0.262713886850980       0.718812805452418     
  0.913899852728355        1.15900326160247        1.50348782663642     
   2.30866562012692        2.85695238441818        3.97409459093263     
   4.36652539152440        5.06814614102487        7.19176180092981     
   7.36616818651070     
 @CHECKOUT-I, Total execution time (CPU/WALL):        0.92/       0.50 seconds.
--executable xvtran finished with status     0 in        0.51 seconds (walltime).
 --invoking executable--
/home/qc/cfour_v2.1_intel_2017_eland2/bin/xintprc
 @GETMEM-I,  Allocated   30517 MB of main memory.
  @GMOIAA-I, Processing MO integrals for spin case AA.
  @GMOIAA-I, Generation of integral list completed.
                      TYPE                NUMBER
                      ----               --------
                      PPPP               1862118
                      PPPH                340336
                      PPHH                 15793
                      PHPH                 10160
                      PHHH                   950
                      HHHH                    22

                     TOTAL               2229379

  @FORMT2-I, Second-order MP correlation energies:
            ------------------------------------------------
            E(SCF)                  =    -76.053639648016 a.u.
            E2(AA)                  =     -0.032915896625 a.u.
            E2(AB)                  =     -0.205583251324 a.u.
            E2(TOT)                 =     -0.271415044574 a.u.
            Total MP2 energy        =    -76.325054692590 a.u.
            ------------------------------------------------
   Largest T2 amplitudes for spin case AB:
       _       _                 _       _                 _       _
   i   j   a   b             i   j   a   b             i   j   a   b
-----------------------------------------------------------------------------
[  4   4  58  58]-0.02124 [  2   2  14  14]-0.01927 [  3   3  42  42]-0.01608
[  3   3  41  41]-0.01482 [  4   2  58  14]-0.01396 [  2   4  14  58]-0.01396
[  4   4  62  58]-0.01353 [  4   4  58  62]-0.01353 [  3   3  42  41]-0.01342
[  3   3  41  42]-0.01342 [  3   2  41  14]-0.01304 [  2   3  14  41]-0.01304
[  4   4  58  55]-0.01303 [  4   4  55  58]-0.01303 [  4   4  59  59]-0.01268
-----------------------------------------------------------------------------
   Norm of T2AB vector (    31238 symmetry allowed elements):  0.2222478240.
-----------------------------------------------------------------------------
 @CHECKOUT-I, Total execution time (CPU/WALL):        0.54/       0.34 seconds.
--executable xintprc finished with status     0 in        0.40 seconds (walltime).
  calling xvcc 
 --invoking executable--
/home/qc/cfour_v2.1_intel_2017_eland2/bin/xvcc
 @GETMEM-I,  Allocated   30517 MB of main memory.
   CC3 energy will be calculated.
   The total correlation energy is -0.271415044574 a.u.
   The total correlation energy is -0.279091884263 a.u.
  Convergence information after     1 iterations: 
  Largest element of residual vector : -0.10255949E-01.
  Largest element of DIIS residual   : -0.10255949E-01.
   The total correlation energy is -0.283877260926 a.u.
  Convergence information after     2 iterations: 
  Largest element of residual vector : -0.15933470E-02.
  Largest element of DIIS residual   : -0.17837983E-02.
   The total correlation energy is -0.284786364104 a.u.
  Convergence information after     3 iterations: 
  Largest element of residual vector : -0.18345627E-02.
  Largest element of DIIS residual   : -0.11479489E-02.
   The total correlation energy is -0.285280554434 a.u.
  Convergence information after     4 iterations: 
  Largest element of residual vector : -0.25748874E-03.
  Largest element of DIIS residual   : -0.13865182E-03.
   The total correlation energy is -0.285317264174 a.u.
  Convergence information after     5 iterations: 
  Largest element of residual vector : -0.14728124E-03.
  Largest element of DIIS residual   :  0.73980065E-04.
   The total correlation energy is -0.285320748789 a.u.
  Convergence information after     6 iterations: 
  Largest element of residual vector :  0.36295017E-04.
  Largest element of DIIS residual   :  0.26040472E-04.
   The total correlation energy is -0.285320032320 a.u.
  Convergence information after     7 iterations: 
  Largest element of residual vector :  0.18880729E-04.
  Largest element of DIIS residual   :  0.10815246E-04.
   The total correlation energy is -0.285319963593 a.u.
  Convergence information after     8 iterations: 
  Largest element of residual vector :  0.53122918E-05.
  Largest element of DIIS residual   :  0.29218172E-05.
   The total correlation energy is -0.285320211711 a.u.
  Convergence information after     9 iterations: 
  Largest element of residual vector :  0.19185777E-05.
  Largest element of DIIS residual   :  0.14785733E-05.
   The total correlation energy is -0.285320238637 a.u.
  Convergence information after    10 iterations: 
  Largest element of residual vector :  0.61831299E-06.
  Largest element of DIIS residual   :  0.38133480E-06.
   The total correlation energy is -0.285320252955 a.u.
  Convergence information after    11 iterations: 
  Largest element of residual vector :  0.21386621E-06.
  Largest element of DIIS residual   :  0.94183624E-07.
   The total correlation energy is -0.285320255808 a.u.
  Convergence information after    12 iterations: 
  Largest element of residual vector :  0.60841214E-07.
  Largest element of DIIS residual   :  0.27945194E-07.
   The total correlation energy is -0.285320256486 a.u.
  Convergence information after    13 iterations: 
  Largest element of residual vector :  0.11708631E-07.
  Largest element of DIIS residual   :  0.89622625E-08.
   The total correlation energy is -0.285320256939 a.u.
  Convergence information after    14 iterations: 
  Largest element of residual vector :  0.77364166E-08.
  Largest element of DIIS residual   :  0.39423704E-08.
   The total correlation energy is -0.285320257207 a.u.
  Convergence information after    15 iterations: 
  Largest element of residual vector :  0.24886381E-08.
  Largest element of DIIS residual   :  0.14773759E-08.
   The total correlation energy is -0.285320257264 a.u.
  Convergence information after    16 iterations: 
  Largest element of residual vector :  0.10724747E-08.
  Largest element of DIIS residual   :  0.34332508E-09.
   The total correlation energy is -0.285320257286 a.u.
  Convergence information after    17 iterations: 
  Largest element of residual vector :  0.29848778E-09.
  Largest element of DIIS residual   :  0.11259417E-09.
  Amplitude equations converged in    17iterations.
   The total correlation energy is -0.285320257293 a.u.
   The CC iterations have converged.

   Largest T1 amplitudes for spin case AA:
   i       a                 i       a                 i       a    
-----------------------------------------------------------------------------
[  3      37    ]-0.01520 [  3      38    ]-0.01263 [  2       6    ] 0.00888
[  2       9    ] 0.00793 [  4      66    ]-0.00541 [  2       5    ] 0.00397
[  3      47    ]-0.00391 [  3      40    ] 0.00371 [  4      62    ]-0.00347
[  2      20    ]-0.00341 [  4      73    ]-0.00338 [  2      28    ]-0.00335
[  3      41    ] 0.00294 [  2      13    ] 0.00279 [  1      14    ]-0.00274
-----------------------------------------------------------------------------
   Norm of T1AA vector (      107 symmetry allowed elements):  0.0281451460.
-----------------------------------------------------------------------------
   Largest T2 amplitudes for spin case AB:
       _       _                 _       _                 _       _
   i   j   a   b             i   j   a   b             i   j   a   b
-----------------------------------------------------------------------------
[  4   4  58  58]-0.02444 [  2   2  14  14]-0.02107 [  3   3  42  42]-0.01704
[  3   3  41  41]-0.01588 [  4   4  62  58]-0.01562 [  4   4  58  62]-0.01562
[  4   4  59  59]-0.01501 [  4   4  58  55]-0.01469 [  4   4  55  58]-0.01469
[  3   3  37  37]-0.01464 [  3   3  42  41]-0.01464 [  3   3  41  42]-0.01464
[  2   2  59  59]-0.01426 [  4   2  58  14]-0.01401 [  2   4  14  58]-0.01401
-----------------------------------------------------------------------------
   Norm of T2AB vector (    31238 symmetry allowed elements):  0.2500322329.
-----------------------------------------------------------------------------
       Summary of iterative solution of CC equations 
      -----------------------------------------------------------
                       Correlation           Total
       Iteration         Energy              Energy
      -----------------------------------------------------------
            0        -0.271415044574     -76.325054692590  DIIS 
            1        -0.279091884263     -76.332731532279  DIIS 
            2        -0.283877260926     -76.337516908942  DIIS 
            3        -0.284786364104     -76.338426012120  DIIS 
            4        -0.285280554434     -76.338920202450  DIIS 
            5        -0.285317264174     -76.338956912190  DIIS 
            6        -0.285320748789     -76.338960396805  DIIS 
            7        -0.285320032320     -76.338959680336  DIIS 
            8        -0.285319963593     -76.338959611609  DIIS 
            9        -0.285320211711     -76.338959859727  DIIS 
           10        -0.285320238637     -76.338959886653  DIIS 
           11        -0.285320252955     -76.338959900971  DIIS 
           12        -0.285320255808     -76.338959903824  DIIS 
           13        -0.285320256486     -76.338959904502  DIIS 
           14        -0.285320256939     -76.338959904955  DIIS 
           15        -0.285320257207     -76.338959905223  DIIS 
           16        -0.285320257264     -76.338959905280  DIIS 
           17        -0.285320257293     -76.338959905309  DIIS 
      -----------------------------------------------------------
      A miracle has come to pass. The CC iterations have converged.
      The reference energy is       -76.05363964801600 a.u.
      The correlation energy is      -0.28532025729316 a.u.
      The total energy is           -76.33895990530917 a.u.
 @CHECKOUT-I, Total execution time (CPU/WALL):       25.76/      12.91 seconds.
--executable xvcc finished with status     0 in       12.99 seconds (walltime).
 --invoking executable--
/home/qc/cfour_v2.1_intel_2017_eland2/bin/xlambda
 @GETMEM-I,  Allocated   30517 MB of main memory.
 Hbar is calculated for a CCSD wave function.
 Calculation of Hbar completed.
 @CHECKOUT-I, Total execution time (CPU/WALL):        0.42/       0.23 seconds.
--executable xlambda finished with status     0 in        0.28 seconds (walltime).
 --invoking executable--
/home/qc/cfour_v2.1_intel_2017_eland2/bin/xvip
 @GETMEM-I,  Allocated   30517 MB of main memory.
 IPs are calculated using the EOMIP-CCSD method.
  Summary of active alpha molecular orbitals:
------------------------------------------------------------------------------
Orbital Symm. Eigenvalue  <xx>     <yy>     <zz>     <xy>     <xz>     <yz>
------------------------------------------------------------------------------
    1     1      -1.3289   0.000    0.000    0.000    0.000    0.000    0.000
    2     1      -0.5658   0.000    0.000    0.000    0.000    0.000    0.000
    3     2      -0.5051   0.000    0.000    0.000    0.000    0.000    0.000
    4     3      -0.7050   0.000    0.000    0.000    0.000    0.000    0.000
    5     1       0.0292   0.000    0.000    0.000    0.000    0.000    0.000
    6     1       0.1365   0.000    0.000    0.000    0.000    0.000    0.000
    7     1       0.1719   0.000    0.000    0.000    0.000    0.000    0.000
    8     1       0.2424   0.000    0.000    0.000    0.000    0.000    0.000
    9     1       0.3130   0.000    0.000    0.000    0.000    0.000    0.000
   10     1       0.4282   0.000    0.000    0.000    0.000    0.000    0.000
   11     1       0.6477   0.000    0.000    0.000    0.000    0.000    0.000
   12     1       0.7115   0.000    0.000    0.000    0.000    0.000    0.000
   13     1       0.8122   0.000    0.000    0.000    0.000    0.000    0.000
   14     1       0.8986   0.000    0.000    0.000    0.000    0.000    0.000
   15     1       0.9713   0.000    0.000    0.000    0.000    0.000    0.000
   16     1       1.0089   0.000    0.000    0.000    0.000    0.000    0.000
   17     1       1.1583   0.000    0.000    0.000    0.000    0.000    0.000
   18     1       1.5867   0.000    0.000    0.000    0.000    0.000    0.000
   19     1       1.8143   0.000    0.000    0.000    0.000    0.000    0.000
   20     1       2.0710   0.000    0.000    0.000    0.000    0.000    0.000
   21     1       2.3229   0.000    0.000    0.000    0.000    0.000    0.000
   22     1       2.3963   0.000    0.000    0.000    0.000    0.000    0.000
   23     1       2.4909   0.000    0.000    0.000    0.000    0.000    0.000
   24     1       2.7168   0.000    0.000    0.000    0.000    0.000    0.000
   25     1       3.7125   0.000    0.000    0.000    0.000    0.000    0.000
   26     1       4.1760   0.000    0.000    0.000    0.000    0.000    0.000
   27     1       4.4746   0.000    0.000    0.000    0.000    0.000    0.000
   28     1       4.6299   0.000    0.000    0.000    0.000    0.000    0.000
   29     1       5.1623   0.000    0.000    0.000    0.000    0.000    0.000
   30     1       5.6544   0.000    0.000    0.000    0.000    0.000    0.000
   31     1       6.0435   0.000    0.000    0.000    0.000    0.000    0.000
   32     1       6.7813   0.000    0.000    0.000    0.000    0.000    0.000
   33     1       7.2693   0.000    0.000    0.000    0.000    0.000    0.000
   34     1       7.4375   0.000    0.000    0.000    0.000    0.000    0.000
   35     1       7.8959   0.000    0.000    0.000    0.000    0.000    0.000
   36     1      14.6411   0.000    0.000    0.000    0.000    0.000    0.000
   37     2       0.1597   0.000    0.000    0.000    0.000    0.000    0.000
   38     2       0.3048   0.000    0.000    0.000    0.000    0.000    0.000
   39     2       0.7320   0.000    0.000    0.000    0.000    0.000    0.000
   40     2       0.8389   0.000    0.000    0.000    0.000    0.000    0.000
   41     2       0.9322   0.000    0.000    0.000    0.000    0.000    0.000
   42     2       1.0788   0.000    0.000    0.000    0.000    0.000    0.000
   43     2       1.5751   0.000    0.000    0.000    0.000    0.000    0.000
   44     2       2.2524   0.000    0.000    0.000    0.000    0.000    0.000
   45     2       2.3986   0.000    0.000    0.000    0.000    0.000    0.000
   46     2       2.7161   0.000    0.000    0.000    0.000    0.000    0.000
   47     2       4.0430   0.000    0.000    0.000    0.000    0.000    0.000
   48     2       4.3026   0.000    0.000    0.000    0.000    0.000    0.000
   49     2       4.3719   0.000    0.000    0.000    0.000    0.000    0.000
   50     2       5.3725   0.000    0.000    0.000    0.000    0.000    0.000
   51     2       6.6926   0.000    0.000    0.000    0.000    0.000    0.000
   52     2       7.1024   0.000    0.000    0.000    0.000    0.000    0.000
   53     2       7.2175   0.000    0.000    0.000    0.000    0.000    0.000
   54     3       0.0471   0.000    0.000    0.000    0.000    0.000    0.000
   55     3       0.1815   0.000    0.000    0.000    0.000    0.000    0.000
   56     3       0.2257   0.000    0.000    0.000    0.000    0.000    0.000
   57     3       0.3639   0.000    0.000    0.000    0.000    0.000    0.000
   58     3       0.4588   0.000    0.000    0.000    0.000    0.000    0.000
   59     3       0.6012   0.000    0.000    0.000    0.000    0.000    0.000
   60     3       0.9031   0.000    0.000    0.000    0.000    0.000    0.000
   61     3       0.9261   0.000    0.000    0.000    0.000    0.000    0.000
   62     3       1.0318   0.000    0.000    0.000    0.000    0.000    0.000
   63     3       1.1068   0.000    0.000    0.000    0.000    0.000    0.000
   64     3       1.2755   0.000    0.000    0.000    0.000    0.000    0.000
   65     3       1.7305   0.000    0.000    0.000    0.000    0.000    0.000
   66     3       1.9567   0.000    0.000    0.000    0.000    0.000    0.000
   67     3       2.4378   0.000    0.000    0.000    0.000    0.000    0.000
   68     3       2.7224   0.000    0.000    0.000    0.000    0.000    0.000
   69     3       2.8685   0.000    0.000    0.000    0.000    0.000    0.000
   70     3       3.5611   0.000    0.000    0.000    0.000    0.000    0.000
   71     3       4.1659   0.000    0.000    0.000    0.000    0.000    0.000
   72     3       4.4486   0.000    0.000    0.000    0.000    0.000    0.000
   73     3       4.6814   0.000    0.000    0.000    0.000    0.000    0.000
   74     3       5.0054   0.000    0.000    0.000    0.000    0.000    0.000
   75     3       5.2579   0.000    0.000    0.000    0.000    0.000    0.000
   76     3       6.5609   0.000    0.000    0.000    0.000    0.000    0.000
   77     3       7.3176   0.000    0.000    0.000    0.000    0.000    0.000
   78     3       7.7593   0.000    0.000    0.000    0.000    0.000    0.000
   79     3       8.5419   0.000    0.000    0.000    0.000    0.000    0.000
   80     4       0.2627   0.000    0.000    0.000    0.000    0.000    0.000
   81     4       0.7188   0.000    0.000    0.000    0.000    0.000    0.000
   82     4       0.9139   0.000    0.000    0.000    0.000    0.000    0.000
   83     4       1.1590   0.000    0.000    0.000    0.000    0.000    0.000
   84     4       1.5035   0.000    0.000    0.000    0.000    0.000    0.000
   85     4       2.3087   0.000    0.000    0.000    0.000    0.000    0.000
   86     4       2.8570   0.000    0.000    0.000    0.000    0.000    0.000
   87     4       3.9741   0.000    0.000    0.000    0.000    0.000    0.000
   88     4       4.3665   0.000    0.000    0.000    0.000    0.000    0.000
   89     4       5.0681   0.000    0.000    0.000    0.000    0.000    0.000
   90     4       7.1918   0.000    0.000    0.000    0.000    0.000    0.000
   91     4       7.3662   0.000    0.000    0.000    0.000    0.000    0.000
------------------------------------------------------------------------------
  nsizec is                    331
  @DOEOMIP2-I, right-hand eigenvectors will be computed.
  Beginning symmetry block   2.   1 roots requested.
  1   1  0.5846295834D+00  0.1590857974D+02  0.0000000000D+00  0.4600649452D+00
  2   2  0.5273335598D+00  0.1434947567D+02  0.9944914495D+00  0.8927997284D-01
  3   3  0.5066666242D+00  0.1378709977D+02  0.9968174701D+00  0.2154454995D-01
  4   4  0.5056780937D+00  0.1376020049D+02  0.9998690015D+00  0.4219779053D-02
  L-O-C-K-I-N-G O-N R-O-O-T 
  5   5  0.5055670482D+00  0.1375717878D+02  0.9999965439D+00  0.1024888312D-02
  6   6  0.5055611628D+00  0.1375701863D+02  0.9999997754D+00  0.1802294066D-03
  7   7  0.5055614123D+00  0.1375702542D+02  0.9999999909D+00  0.4843173063D-04
  8   8  0.5055609554D+00  0.1375701299D+02  0.9999999995D+00  0.8863481241D-05
  9   9  0.5055610150D+00  0.1375701461D+02  0.1000000000D+01  0.2133360119D-05
 10  10  0.5055610075D+00  0.1375701441D+02  0.1000000000D+01  0.3984955855D-06
 11  11  0.5055610098D+00  0.1375701447D+02  0.1000000000D+01  0.6946164097D-07
 12  12  0.5055610097D+00  0.1375701447D+02  0.1000000000D+01  0.1188869892D-07
 13  13  0.5055610098D+00  0.1375701447D+02  0.1000000000D+01  0.2253620957D-08
 14  14  0.5055610098D+00  0.1375701447D+02  0.1000000000D+01  0.3709393254D-09
 15  15  0.5055610098D+00  0.1375701447D+02  0.1000000000D+01  0.7266451508D-10
  Converged eigenvalue:   0.505561009766548       a.u.
   Total EOMIP-CCSD electronic energy     -75.83339889554262 a.u.
          --------------------------------
             I    J    A       C(IJA)
          --------------------------------
              0    3    0    0.6977321103
              3    3   37    0.0371091085
              3    3   41   -0.0315446289
              3    3   42   -0.0276011988
              4    3   58   -0.0274510805
              3    3   38    0.0264910859
              2    3   14   -0.0236349011
              2    3    6   -0.0227866603
              4    3   55   -0.0219555708
              2    3    9   -0.0204852249
              3    3   40   -0.0160132957
              1    3   10   -0.0159681412
              4    3   62   -0.0149091121
              1    3    7   -0.0132388318
              2    3   10   -0.0129254287
          --------------------------------

  Eigenvector is saved on CCRE_1_1  

  VIP all done  ! 
 @CHECKOUT-I, Total execution time (CPU/WALL):        0.16/       0.11 seconds.
--executable xvip finished with status     0 in        0.13 seconds (walltime).
  The final electronic energy is       -75.833398895542615 a.u. 
  This computation required                           15.84 seconds (walltime).
 
Timing info
25.328u 4.343s 0:15.84 187.2% 0+0k 3376+580304io 79pf+0w
 
Scratch space info (BEFORE cleaning //scratch/mdavis)
 
Cleaning up ...
Filesystem      Size  Used Avail Use% Mounted on
/dev/sda9       785G  1.6G  744G   1% /scratch
 
Scratch space info (AFTER cleaning //scratch/mdavis)
Filesystem      Size  Used Avail Use% Mounted on
/dev/sda9       785G  1.3G  744G   1% /scratch
