 --invoking executable--
/home/qc/cfour_v2.1_intel_2017_eland2/bin/xjoda


   *************************************************************************
         <<<     CCCCCC     CCCCCC   |||     CCCCCC     CCCCCC   >>>
       <<<      CCC        CCC       |||    CCC        CCC         >>>
      <<<      CCC        CCC        |||   CCC        CCC            >>>
    <<<        CCC        CCC        |||   CCC        CCC              >>>
      <<<      CCC        CCC        |||   CCC        CCC            >>>
       <<<      CCC        CCC       |||    CCC        CCC         >>>
         <<<     CCCCCC     CCCCCC   |||     CCCCCC     CCCCCC   >>>
   *************************************************************************

     ****************************************************************
     * CFOUR Coupled-Cluster techniques for Computational Chemistry *
     ****************************************************************
 

   Department of Chemistry                Institut fuer Physikalische Chemie
   University of Florida                  Universitaet Mainz
   Gainesville, FL 32611, USA             D-55099 Mainz, Germany

   Department of Chemistry                Fakultaet fuer Chemie und Biowiss.
   Johns Hopkins University               Karlsruher Institut fuer Technologie
   Baltimore, MD 21218, USA               D-76131 Karlsruhe, Germany

   Department of Chemistry                Department of Physical Chemistry
   Southern Methodist University          Eotvos Lorand University
   Dallas, TX 75275, USA                  H-1053 Budapest, Hungary

 
                       Version 2.1
 
                     node20                                            
                     Fri 04 Nov 2022 09:26:58 AM CDT                   
                     integer*8 version is running
 
********************************************************************************
*                          Input from ZMAT file                                *
********************************************************************************
h2o AUG-PVTZ CC3                                                                
H        0.0000000000       -1.5534694038       -0.9679022204                   
O        0.0000000000        0.0000000000        0.1195402509                   
H        0.0000000000        1.5534694038       -0.9679022204                   
                                                                                
                                                                                
                                                                                
*CFOUR(CALC=CC3,BASIS=AUG-PVTZ,COORDINATES=CARTESIAN,UNITS=BOHR                 
CC_CONV=9                                                                       
LINEQ_CONV=12                                                                   
SCF_CONV=9                                                                      
ESTATE_CONV=10                                                                  
CHARGE=0                                                                        
MULTIPLICITY=1                                                                  
FROZEN_CORE=ON                                                                  
RELATIVISTIC=OFF                                                                
REFERENCE=RHF                                                                   
EXCITE=EOMIP                                                                    
ESTATE_SYM=0/1/0/0                                                              
MEM_UNIT=GB,MEMORY_SIZE=32)                                                     
                                                                                
H:APVTZ-X2C                                                                     
O:APVTZ-X2C                                                                     
H:APVTZ-X2C                                                                     
                                                                                
********************************************************************************
    -------------------------------------------------------------------
                    CFOUR Control Parameters 
    -------------------------------------------------------------------
        External           Internal           Value            Units
          Name               Name
    -------------------------------------------------------------------
       ABCDTYPE             IABCDT         STANDARD    [  0]    ***   
       ANHARMONIC           IANHAR         OFF         [  0]    ***   
       ANH_ALGORIT          IANALG         STANDARD    [  0]    ***   
       ANH_DERIVAT          IANDER         SECOND      [  1]    ***   
       ANH_MODE             ANHMOD         VIBRATION   [  0]    ***   
       ANH_STEPSIZ          ICUBST             50000          x 10-6  
       ANH_SYMMETR          IANHSM         ABELIAN     [  0]    ***   
       AO_LADDERS           IAOLAD         SINGLEPASS  [  1]    ***   
       AV_SCF               IAVSCF         OFF         [  0]    ***   
       BASIS                IBASIS         AUG-PVTZ    [ 34]    ***   
       BOTHVECTORS          BOTHVC         OFF         [  0]    ***   
       BOX_POTENT           IPIAB          OFF         [  0]    ***   
       BREIT                IBREIT         OFF         [  0]    ***   
       BRUCK_CONV           IBRTOL          10D-  4             ***   
       BRUECKNER            IBRKNR         OFF         [  0]    ***   
       BUFFERSIZE           IBUFFS              4096            ***   
       CACHE_RECS           ICHREC             10               ***   
       CALCLEVEL            ICLLVL         CC3         [ 32]    ***   
       CCORBOPT             ICCORB         OFF         [  0]  x 0.01  
       CC_CONV              ICCCNV          10D-  9             ***   
       CC_EXPORDER          ICCEOR              5               ***   
       CC_EXTRAPOL          ICCEXT         DIIS        [  1]    ***   
       CC_GUESS             ICCGES         MP2         [  0]    ***   
       CC_MAXCYC            ICCCYC            100              cycles 
       CC_PROGRAM           ICCPRO         VCC         [  0]    ***   
       CHARGE               ICHRGE              0               ***   
       CHOLESKY             ICHOLE         OFF         [  0]    ***   
       CIS_CONV             ICISTL              5               ***   
       COMM_SIZE            IPSIZE            ***               ***   
       CONSTANT             ICONST         OLD         [  1]    ***   
       CONTINUUM            ICONTU         NONE        [  0]    ***   
       CONTRACTION          ICNTYP         GENERAL     [  1]    ***   
       COORDINATES          ICOORD         CARTESIAN   [  1]    ***   
       CPHF_CONVER          ICPHFT          10D- 16             ***   
       CPHF_MAXCYC          ICPHFC             64              cycles 
       CUBIC                ICUBIC         OFF         [  0]    ***   
       CURVILINEAR          ICURVY         OFF         [  0]    ***   
       DBOC                 IDBOC          OFF         [  0]    ***   
       DCT                  IDCT           OFF         [  0]    ***   
       DERIV_LEV            IDRLVL         ZERO        [  0]    ***   
       DEVMEM_SIZE          IDVMEM         *********           MByte  
       DIAG_MRCC            IEOMST          10D-  0             ***   
       DIFF_TYPE            IDIFTY         RELAXED     [  0]    ***   
       DIRECT               IDIRCT         OFF         [  0]    ***   
       DROPMO               IDRPMO      NONE         
       ECP                  IECP           OFF         [  0]    ***   
       EIGENVECTOR          IVEC                1               ***   
       EL_ANHARM            IELANH         OFF         [  0]    ***   
       EOMFOLLOW            IEOMSR         ENERGY      [  0]    ***   
       EOMIP                IEOMIP         OFF         [  0]    ***   
       EOMLEVEL             HBARFM         SAME        [  0]    ***   
       EOM_MRCC             IMRCCE         NEW         [  1]    ***   
       EOM_NONIT            EOMNON         OFF         [  0]    ***   
       EOM_NSING            IEOMSI          10D-  0             ***   
       EOM_NSTATES          IMRCCD         DAVIDSON    [  0]    ***   
       EOM_NTRIP            IEOMTR          10D-  0             ***   
       EOM_ORDER            IEXORD         ENERGY      [  0]    ***   
       EOM_PROPSTA          IEOMST              0               ***   
       ESTATE_CONV          IEXTOL          10D- 10             ***   
       ESTATE_DIAG          IEXDIG         ITERATIVE   [  0]    ***   
       ESTATE_LOCK          IESLOC         ON          [  1]    ***   
       ESTATE_MAXC          IEXMXC             40               ***   
       ESTATE_PROP          IEXPRP         OFF         [  0]    ***   
       ESTATE_SYM           IEXSYM   0,  1,  0,  0,
       EVAL_HESS            IRECAL              0            # of cyc.
       EXCITATION           IEXCIT              0               ***   
       EXCITE               IEXCIT         EOMIP       [  4]    ***   
       EXTERN_POT           IEXPOT         OFF         [  0]    ***   
       FCGRADNEW            IFCGNW         OFF         [  0]    ***   
       FC_FIELD             IFINFC              0             x 10-6  
       FD_CALTYPE           IFDCAL         GRADONLY    [  0]    ***   
       FD_PROJECT           IFDPRJ         OFF         [  1]    ***   
       FD_STEPSIZE          IDISFD              0            10-4 bohr
       FD_USEGROUP          IFDGRP         FULL        [  0]    ***   
       FILE_RECSIZ          IFLREC              4096           words  
       FINITE_PERT          IFIPER              0             x 10-6  
       FIXGEOM              IFIXGM         OFF         [  0]    ***   
       FOCK                 IFOCK          AO          [  1]    ***   
       FREQ_ALGORI          IVIALG         STANDARD    [  0]    ***   
       FROZEN_CORE          IFROCO         ON          [  1]    ***   
       GAMMA_ABCD           IGABCD         STORE       [  0]    ***   
       GAMMA_ABCI           IGABCI         STORE       [  0]    ***   
       GENBAS_1             IGNBS1              0               ***   
       GENBAS_2             IGNBS2              0               ***   
       GENBAS_3             IGNBS3              0               ***   
       GENBAS_4             IGNBS4              0               ***   
       GEO_CONV             ICONTL              5              H/bohr 
       GEO_MAXCYC           IOPTCY             50               ***   
       GEO_MAXSTEP          IMXSTP            300            millibohr
       GEO_METHOD           INR            SINGLE_POINT[  5]    ***   
       GIAO                 IGIAO          OFF         [  1]    ***   
       GIMIC                IGIMIC         OFF         [  0]    ***   
       GRID                 IGRID          OFF         [  0]    ***   
       GRID_ALGO            IGALGO         SERIAL      [  0]    ***   
       GUESS                IGUESS         MOREAD      [  0]    ***   
       HBAR                 IHBAR          ON          [  1]    ***   
       HESS_TYPE            IHESTP         SCF         [  0]    ***   
       HF2_FILE             IHF2Fl         USE         [  1]    ***   
       HFSTABILITY          ISTABL         OFF         [  0]    ***   
       INCORE               INCORE         OFF         [  0]    ***   
       INPUT_MRCC           IMRCC          ON          [  1]    ***   
       INTEGRALS            INTTYP         VMOL        [  1]    ***   
       JODA_PRINT           IJPRNT              0               ***   
       KEYWORD_OUT          IDMPKW         NO          [  0]    ***   
       LINDEP_TOL           ILINDP              8               ***   
       LINEQ_CONV           IZTACN          10D- 12           cycles  
       LINEQ_EXPOR          ILMAXD              5               ***   
       LINEQ_MAXCY          ILMAXC            100               ***   
       LINEQ_TYPE           ILTYPE         DIIS        [  1]    ***   
       LOCK_ORBOCC          ILOCOC         OFF         [  0]    ***   
       MEMORY_SIZE          IMEMSZ         *********           words  
       MEM_UNIT             IMEMU          GB          [  3]    ***   
       MRCC                 IMRCCC         OFF         [  0]    ***   
       MULTIPLICTY          IMULTP              1               ***   
       NACOUPLING           IVCOUP         OFF         [  0]    ***   
       NEGEVAL              IDIE           ABORT       [  0]    ***   
       NEWNORM              INEWNO         OFF         [  0]    ***   
       NON-HF               INONHF         OFF         [  0]    ***   
       NTOP_TAMP            ITOPT2             15               ***   
       NUC_MODEL            INUCMO         POINT       [  0]    ***   
       OCCUPATION           IOCCU   ESTIMATED BY SCF 
       OPEN-SHELL           IOPEN          SPIN-ORBITAL[  0]    ***   
       OPTVIB               IOPTVB         OFF         [  0]    ***   
       ORBITALS             IORBTP         STANDARD    [  0]    ***   
       PARALLEL             IPARAL         ON          [  1]    ***   
       PARA_INT             IPINTS         ON          [  1]    ***   
       PARA_PRINT           IPPRIN              0               ***   
       PERT_ORB             IPTORB         STANDARD    [  0]    ***   
       POINTS               IGRDFD              0               ***   
       PRINT                IPRNT               0               ***   
       PROPS                IPROPS         OFF         [  0]    ***   
       PROP_INTEGR          IINTYP         INTERNAL    [  0]    ***   
       PSI                  IPSI           OFF         [  0]    ***   
       QC_ALG               IQCALG         FLM         [  0]    ***   
       QC_LINALG            IQCLIN         TRIDIAG     [  2]    ***   
       QC_MAXCYC            IQCMAX          10D-100           cycles  
       QC_MAXSCFCY          IQCMSC          10D- 15           cycles  
       QC_RTRUST            IQCRTR          10D-  0           x 10-3  
       QC_SKIPSCF           IQCSKI         OFF         [  0]    ***   
       QC_START             IQCSTA          10D-  1             ***   
       QRHFGUESS            IQGUES         OFF         [  0]    ***   
       QUARTIC              IQUART         OFF         [  0]    ***   
       RAMAN_INT            IRAMIN         OFF         [  0]    ***   
       RAMAN_ORB            IRAMRE         UNRELAXED   [  0]    ***   
       RDO                  IRDOFM         OFF         [  0]    ***   
       REDUCE_REPR          REDREP         Ir          [  0]    ***   
       REFERENCE            IREFNC         RHF         [  0]    ***   
       RELATIVIST           IRELAT         OFF         [  0]    ***   
       RELAX_DENS           IRDENS         OFF         [  0]    ***   
       RESET_FLAGS          IRESET         OFF         [  0]    ***   
       RESTART_CC           ICCRES         OFF         [  0]    ***   
       ROT_EVEC             ROTVEC              0               ***   
       SAVE_INTS            ISVINT         OFF         [  0]    ***   
       SCALE_ON             ISTCRT              0               ***   
       SCF_CONV             ISCFCV          10D-  9             ***   
       SCF_DAMPING          IDAMP               0             x 10-3  
       SCF_EXPORDE          IRPPOR              6               ***   
       SCF_EXPSTAR          IRPPLS              8               ***   
       SCF_EXTRAPO          IRPP           ON          [  1]    ***   
       SCF_MAXCYC           ISCFCY            150              cycles 
       SCF_NOSTOP           ISCFST         OFF         [  0]    ***   
       SCF_PRINT            ISCFPR              0               ***   
       SCF_PROG             ISCFPR         SCF         [  0]    ***   
       SD_FIELD             IFINSD              0             x 10-6  
       SOPERT               IPERSO         OFF         [  0]    ***   
       SPHERICAL            IDFGHI         ON          [  1]    ***   
       SPINORBIT            ISOCAL         OFF         [  0]    ***   
       SPINROTATIO          ISRCON         OFF         [  0]    ***   
       SPIN_FLIP            ISPFLP         OFF         [  0]    ***   
       SPIN_ORBIT           ISPORB         OFF         [  0]    ***   
       SPIN_SCAL            ISCSMP         OFF         [  0]    ***   
       STEEPSCALE           ISTPSC              1000          x 10-3  
       SUBGROUP             ISUBGP         DEFAULT     [  0]    ***   
       SUBGRPAXIS           ISBXYZ         X           [  0]    ***   
       SYMMETRY             ISYM           ON          [  0]    ***   
       SYM_CHECK            ISYMCK         OVERRIDE    [  1]    ***   
       T3_EXTRAPOL          IT3EXT         OFF         [  0]    ***   
       T4_EXTRAPOL          IT4EXP         OFF         [  0]    ***   
       TAMP_SUM             IEVERY              5               ***   
       TESTSUITE            ITESTS         OFF         [  0]    ***   
       THERMOCH             ITHERM         OFF         [  0]    ***   
       TOL_CHOLESK          ITOLCH          10D-  4             ***   
       TRANGRAD             IRESRM         OFF         [  0]    ***   
       TRANS_INV            ITRAIN         USE         [  0]    ***   
       TREAT_PERT           ITREAT         SIMULTANEOUS[  0]    ***   
       TRIP_ALGORI          ITRALG         NORMAL      [  0]    ***   
       UIJ_THRESHO          IUIJTH              1               ***   
       UNITS                IUNITS         BOHR        [  1]    ***   
       UNOS                 IUNOS          OFF         [  0]    ***   
       UPDATE_HESS          IHUPDT         ON          [  1]    ***   
       VIBPHASE             ISETPH         STANDARD    [  0]    ***   
       VIBRATION            IVIB           NO          [  0]    ***   
       VIB_ALGORIT          IGEALG         STANDARD    [  0]    ***   
       VNATORB              IVNORB         OFF         [  0]    ***   
       VTRAN                IVTRAN         FULL/PARTIAL[  0]    ***   
       XFIELD               IXEFLD              0             x 10-6  
       XFORM_TOL            IXFTOL          10D- 11             ***   
       YFIELD               IYEFLD              0             x 10-6  
       ZFIELD               IZEFLD              0             x 10-6  
       ZSCALE_EXP           IZEXPS         OFF         [  0]    ***   
    -------------------------------------------------------------------
  @GETXYZ-I,     3 atoms read from ZMAT.
   Rotational constants (in cm-1): 
          8.6232250775            12.3758183195            28.4388581456
   Rotational constants (in MHz): 
     258517.8204044977        371017.7513544263        852575.6380616254
********************************************************************************
   The full molecular point group is C2v .
   The largest Abelian subgroup of the full molecular point group is C2v .
   The computational point group is C2v .
********************************************************************************


 ----------------------------------------------------------------
         Coordinates used in calculation (QCOMP) 
 ----------------------------------------------------------------
 Z-matrix   Atomic            Coordinates (in bohr)
  Symbol    Number           X              Y              Z
 ----------------------------------------------------------------
     H         1         0.00000000    -1.55346940    -0.96574148
     O         8         0.00000000     0.00000000     0.12170099
     H         1         0.00000000     1.55346940    -0.96574148
 ----------------------------------------------------------------
 
   Interatomic distance matrix (Angstroms) 
 
                 H             O             H    
                [ 1]        [ 2]        [ 3]
  H    [ 1]     0.00000
  O    [ 2]     1.00346     0.00000
  H    [ 3]     1.64412     1.00346     0.00000
 rotcon2
   Rotational constants (in cm-1): 
          8.6232250775            28.4388581456            12.3758183195
   Rotational constants (in MHz): 
     258517.8204044977        852575.6380616254        371017.7513544263
  There is   1 frozen-core orbital.
  There are   92 basis functions.
 @GEOPT-W, Archive file not created for single-point calculation.
 @CHECKOUT-I, Total execution time (CPU/WALL):        0.11/       0.14 seconds.
--executable xjoda finished with status     0 in        0.16 seconds (walltime).
 --invoking executable--
/home/qc/cfour_v2.1_intel_2017_eland2/bin/xvmol
 SERIAL VERSION OF MOLECULE STARTED
********************************************************************************
                    INPUT FROM MOL FILE
********************************************************************************
INTGRL        1    0    1    0    0    0    0    0    0                         
         *** CFOUR Program System (Release V0.1) ***                            
h2o AUG-PVTZ CC3                                                                
    2    2 X  Y       0.10E-08              0    0                              
   9999.00      3.00                                                            
          1.00000000    1    3    1    1    1                                   
H #1   0.000000000000000  -1.553469403800000  -0.965741484689801                
    6    4                                                                      
   33.8700000000000       6.068000000000000E-003  0.000000000000000E+000        
  0.000000000000000E+000  0.000000000000000E+000                                
   5.09500000000000       4.530800000000000E-002  0.000000000000000E+000        
  0.000000000000000E+000  0.000000000000000E+000                                
   1.15900000000000       0.202822000000000       0.000000000000000E+000        
  0.000000000000000E+000  0.000000000000000E+000                                
  0.325800000000000       0.503903000000000        1.00000000000000             
  0.000000000000000E+000  0.000000000000000E+000                                
  0.102700000000000       0.383421000000000       0.000000000000000E+000        
   1.00000000000000       0.000000000000000E+000                                
  2.526000000000000E-002  0.000000000000000E+000  0.000000000000000E+000        
  0.000000000000000E+000   1.00000000000000                                     
    3    3                                                                      
   1.40700000000000        1.00000000000000       0.000000000000000E+000        
  0.000000000000000E+000                                                        
  0.388000000000000       0.000000000000000E+000   1.00000000000000             
  0.000000000000000E+000                                                        
  0.102000000000000       0.000000000000000E+000  0.000000000000000E+000        
   1.00000000000000                                                             
    2    2                                                                      
   1.05700000000000        1.00000000000000       0.000000000000000E+000        
  0.247000000000000       0.000000000000000E+000   1.00000000000000             
          8.00000000    1    4    1    1    1    1                              
O #2   0.000000000000000   0.000000000000000   0.121700986610199                
   11    5                                                                      
   15330.0000000000       5.080000000000000E-004 -1.150000000000000E-004        
  0.000000000000000E+000  0.000000000000000E+000  0.000000000000000E+000        
   2299.00000000000       3.929000000000000E-003 -8.950000000000000E-004        
  0.000000000000000E+000  0.000000000000000E+000  0.000000000000000E+000        
   522.400000000000       2.024300000000000E-002 -4.636000000000000E-003        
  0.000000000000000E+000  0.000000000000000E+000  0.000000000000000E+000        
   147.300000000000       7.918100000000000E-002 -1.872400000000000E-002        
  0.000000000000000E+000  0.000000000000000E+000  0.000000000000000E+000        
   47.5500000000000       0.230687000000000      -5.846300000000000E-002        
  0.000000000000000E+000  0.000000000000000E+000  0.000000000000000E+000        
   16.7600000000000       0.433118000000000      -0.136463000000000             
  0.000000000000000E+000  0.000000000000000E+000  0.000000000000000E+000        
   6.20700000000000       0.350260000000000      -0.175740000000000             
  0.000000000000000E+000  0.000000000000000E+000  0.000000000000000E+000        
   1.75200000000000       4.272800000000000E-002  0.160934000000000             
   1.00000000000000       0.000000000000000E+000  0.000000000000000E+000        
  0.688200000000000      -8.154000000000000E-003  0.603418000000000             
  0.000000000000000E+000  0.000000000000000E+000  0.000000000000000E+000        
  0.238400000000000       2.381000000000000E-003  0.378765000000000             
  0.000000000000000E+000   1.00000000000000       0.000000000000000E+000        
  7.376000000000001E-002  0.000000000000000E+000  0.000000000000000E+000        
  0.000000000000000E+000  0.000000000000000E+000   1.00000000000000             
    6    4                                                                      
   34.4600000000000       1.592800000000000E-002  0.000000000000000E+000        
  0.000000000000000E+000  0.000000000000000E+000                                
   7.74900000000000       9.974000000000000E-002  0.000000000000000E+000        
  0.000000000000000E+000  0.000000000000000E+000                                
   2.28000000000000       0.310492000000000       0.000000000000000E+000        
  0.000000000000000E+000  0.000000000000000E+000                                
  0.715600000000000       0.491026000000000        1.00000000000000             
  0.000000000000000E+000  0.000000000000000E+000                                
  0.214000000000000       0.336337000000000       0.000000000000000E+000        
   1.00000000000000       0.000000000000000E+000                                
  5.974000000000000E-002  0.000000000000000E+000  0.000000000000000E+000        
  0.000000000000000E+000   1.00000000000000                                     
    3    3                                                                      
   2.31400000000000        1.00000000000000       0.000000000000000E+000        
  0.000000000000000E+000                                                        
  0.645000000000000       0.000000000000000E+000   1.00000000000000             
  0.000000000000000E+000                                                        
  0.214000000000000       0.000000000000000E+000  0.000000000000000E+000        
   1.00000000000000                                                             
    2    2                                                                      
   1.42800000000000        1.00000000000000       0.000000000000000E+000        
  0.500000000000000       0.000000000000000E+000   1.00000000000000             
FINISH                                                                          
 
********************************************************************************
 ONE- AND TWO-ELECTRON INTEGRALS OVER SYMMETRY-ADAPTED AOS ARE CALCULATED.

  SPHERICAL HARMONICS ARE USED.
  
  INTEGRALS LESS THAN  0.10E-13 ARE NEGLECTED.

  NUCLEAR REPULSION ENERGY :    8.7595260262 A.U.
  @MOLECU-I, ONE ELECTRON INTEGRALS (CPU/WALL):        0.01/       0.02 SECONDS.
  @TWOEL-I,     262932 INTEGRALS OF SYMMETRY TYPE  I I I I
  @TWOEL-I,     865293 INTEGRALS OF SYMMETRY TYPE  I J I J
  @TWOEL-I,     466389 INTEGRALS OF SYMMETRY TYPE  I I J J
  @TWOEL-I,     575256 INTEGRALS OF SYMMETRY TYPE  I J K L
  @TWOEL-I, TOTAL NUMBER OF 2-E INTEGRALS    2169870.
  @MOLECU-I, TWO ELECTRON INTEGRALS (CPU/WALL):        0.71/       0.71 SECONDS.
 @CHECKOUT-I, Total execution time (CPU/WALL):        0.73/       0.73 seconds.

OMP_NUM_THREADS not specified; defaulting to 1
Running with 1 threads/proc

--executable xvmol finished with status     0 in        0.75 seconds (walltime).
 --invoking executable--
/home/qc/cfour_v2.1_intel_2017_eland2/bin/xvmol2ja
 @GETMEM-I,  Allocated   30517 MB of main memory.
 @CHECKOUT-I, Total execution time (CPU/WALL):        0.01/       0.01 seconds.
--executable xvmol2ja finished with status     0 in        0.03 seconds (walltime).
 --invoking executable--
/home/qc/cfour_v2.1_intel_2017_eland2/bin/xvscf
  There are   92 functions in the AO basis.

  There are 4 irreducible representations.

       Irrep        # of functions
         1                 35
         2                 18
         3                 27
         4                 12


  Parameters for SCF calculation: 
        SCF reference function:  RHF  
  Maximum number of iterations:  150
     Full symmetry point group: C2v 
     Computational point group: C2v 
        Initial density matrix: MOREAD                 
     SCF convergence tolerance: 10**(- 9)
  DIIS convergence acceleration:  ON
          Latest start for DIIS:   8
                     DIIS order:   6

  Memory information:     401180 words required.
  Fock matrices are constructed from AO integral file.
 @GETMEM-I,  Allocated       3 MB of main memory.
  Initialization and symmetry analysis required      0.001 seconds.

  @INITGES-I, Occupancies from core Hamiltonian:

          Alpha population by irrep:   3    1    1    0
           Beta population by irrep:   3    1    1    0


 total no. of electrons in initial guess :  0.000000000000000E+000
  --------------------------------------------------------------------
  Iteration         Total Energy            Largest Density Difference
  --------------------------------------------------------------------
       0             8.759526026168901              0.0000000000D+00
   current occupation vector 
     3  1  1  0
     3  1  1  0
       1           -61.234192506925893              0.1230705997D+02
   current occupation vector 
     3  1  1  0
     3  1  1  0
       2           -63.678185470705486              0.2867081959D+02
   current occupation vector 
     3  0  2  0
     3  0  2  0
       3           -70.763571784237996              0.2869759219D+02
   current occupation vector 
     3  1  1  0
     3  1  1  0
       4           -67.750014000880967              0.2473641765D+02
   current occupation vector 
     3  0  2  0
     3  0  2  0
       5           -72.118968405808346              0.2473597646D+02
   current occupation vector 
     3  1  1  0
     3  1  1  0
       6           -68.716344580673692              0.2322514502D+02
   current occupation vector 
     3  0  2  0
     3  0  2  0
       7           -72.488746463408859              0.2322525619D+02
   current occupation vector 
     3  1  1  0
     3  1  1  0
       8           -68.983225216315120              0.2283551603D+02
   current occupation vector 
     3  0  2  0
     3  0  2  0
       9           -75.753522063880880              0.2283643107D+02
   current occupation vector 
     3  1  1  0
     3  1  1  0
      10           -76.041896069786574              0.5364673524D+00
   current occupation vector 
     3  1  1  0
     3  1  1  0
      11           -76.052777390904367              0.9291092677D-01
   current occupation vector 
     3  1  1  0
     3  1  1  0
      12           -76.052910019623852              0.1210132823D-01
   current occupation vector 
     3  1  1  0
     3  1  1  0
      13           -76.052922809717742              0.4007907195D-02
   current occupation vector 
     3  1  1  0
     3  1  1  0
      14           -76.052924882653940              0.2371841255D-02
   current occupation vector 
     3  1  1  0
     3  1  1  0
      15           -76.052924923109217              0.3526494947D-03
   current occupation vector 
     3  1  1  0
     3  1  1  0
      16           -76.052924923881605              0.3579066826D-04
   current occupation vector 
     3  1  1  0
     3  1  1  0
      17           -76.052924923970735              0.1827350804D-04
   current occupation vector 
     3  1  1  0
     3  1  1  0
      18           -76.052924923972682              0.3163956860D-05
   current occupation vector 
     3  1  1  0
     3  1  1  0
      19           -76.052924923972739              0.3186921813D-06
   current occupation vector 
     3  1  1  0
     3  1  1  0
      20           -76.052924923972014              0.3630282641D-07
   current occupation vector 
     3  1  1  0
     3  1  1  0
      21           -76.052924923972711              0.8936988927D-08
   current occupation vector 
     3  1  1  0
     3  1  1  0
      22           -76.052924923973052              0.1379609205D-08
   current occupation vector 
     3  1  1  0
     3  1  1  0

  SCF has converged.

 Density matrix saved to file den.dat
 total electron number:   10.0000000000000     
     E(SCF)=       -76.052924923972697              0.5168245831D-09

  Eigenvector printing suppressed.

 @PUTMOS-I, Writing converged MOs to NEWMOS. 
 @PUTMOS-I, Symmetry   1 Full Blocks  8 Partial Blocksize   3
 @PUTMOS-I, Symmetry   2 Full Blocks  4 Partial Blocksize   2
 @PUTMOS-I, Symmetry   3 Full Blocks  6 Partial Blocksize   3
 @PUTMOS-I, Symmetry   4 Full Blocks  3 Partial Blocksize   0
 @PUTFOCK-I, Writing converged Fock matrix to NEWFOCK. 
 @PUTFOCK-I, Symmetry   1 Full Blocks  8 Partial Blocksize   3
 @PUTFOCK-I, Symmetry   2 Full Blocks  4 Partial Blocksize   2
 @PUTFOCK-I, Symmetry   3 Full Blocks  6 Partial Blocksize   3
 @PUTFOCK-I, Symmetry   4 Full Blocks  3 Partial Blocksize   0


 
  ORBITAL EIGENVALUES (ALPHA)  (1H = 27.2113834 eV)

       MO #        E(hartree)               E(eV)           FULLSYM    COMPSYM
       ----   --------------------   --------------------   -------   ---------
    1     1         -20.5723601555        -559.8023796348      A1        A1 (1)
    2     2          -1.3274920330         -36.1228946714      A1        A1 (1)
    3    54          -0.7025893419         -19.1184279542      B2        B2 (3)
    4     3          -0.5656640103         -15.3925002597      A1        A1 (1)
    5    36          -0.5049646738         -13.7407873418      B1        B1 (2)
  +++++++++++++++++++++++++++++++++++++++++++++++++++++++++++++++++++++++++++++
    6     4           0.0291226361           0.7924672175      A1        A1 (1)
    7    55           0.0471335806           1.2825699334      B2        B2 (3)
    8     5           0.1363949502           3.7114952824      A1        A1 (1)
    9    37           0.1599604230           4.3527444002      B1        B1 (2)
   10     6           0.1718418015           4.6760531442      A1        A1 (1)
   11    56           0.1815227792           4.9394859401      B2        B2 (3)
   12    57           0.2252760919           6.1300741062      B2        B2 (3)
   13     7           0.2422738592           6.5926068697      A1        A1 (1)
   14    81           0.2627963577           7.1510524449      A2        A2 (4)
   15    38           0.3043366407           8.2814210128      B1        B1 (2)
   16     8           0.3126219427           8.5068755419      A1        A1 (1)
   17    58           0.3638854396           9.9018262103      B2        B2 (3)
   18     9           0.4274902488          11.6326010607      A1        A1 (1)
   19    59           0.4580807352          12.4650105136      B2        B2 (3)
   20    60           0.6008626274          16.3503033247      B2        B2 (3)
   21    10           0.6477276835          17.6255663352      A1        A1 (1)
   22    11           0.7112550593          19.3542341145      A1        A1 (1)
   23    82           0.7191745616          19.5697347281      A2        A2 (4)
   24    39           0.7321936141          19.9240011559      B1        B1 (2)
   25    12           0.8112065423          22.0740522389      A1        A1 (1)
   26    40           0.8386263640          22.8201835214      B1        B1 (2)
   27    13           0.8995409698          24.4777542129      A1        A1 (1)
   28    61           0.9023242193          24.5534902818      B2        B2 (3)
   29    83           0.9136398768          24.8614049761      A2        A2 (4)
   30    62           0.9261560278          25.2019867598      B2        B2 (3)
   31    41           0.9322970469          25.3690923865      B1        B1 (2)
   32    14           0.9701670966          26.3995888267      A1        A1 (1)
   33    15           1.0078559665          27.4251551153      A1        A1 (1)
   34    63           1.0308071908          28.0496896791      B2        B2 (3)
   35    42           1.0779905691          29.3336146774      B1        B1 (2)
   36    64           1.1054415431          30.0805936555      B2        B2 (3)
   37    16           1.1573194536          31.4922633690      A1        A1 (1)
   38    84           1.1584165116          31.5221158335      A2        A2 (4)
   39    65           1.2767586006          34.7423677901      B2        B2 (3)
   40    85           1.5018755493          40.8681113911      A2        A2 (4)
   41    43           1.5723844247          42.7867554322      B1        B1 (2)
   42    17           1.5857612038          43.1507560963      A1        A1 (1)
   43    66           1.7301784309          47.0805486331      B2        B2 (3)
   44    18           1.8163172493          49.4245050474      A1        A1 (1)
   45    67           1.9512616225          53.0965281247      B2        B2 (3)
   46    19           2.0671707485          56.2505757916      A1        A1 (1)
   47    44           2.2523014866          61.2882392845      B1        B1 (2)
   48    86           2.3076713556          62.7949300187      A2        A2 (4)
   49    20           2.3233590504          63.2218138963      A1        A1 (1)
   50    21           2.3960963743          65.2010971054      A1        A1 (1)
   51    45           2.3987129532          65.2722978350      B1        B1 (2)
   52    68           2.4380828435          66.3436070162      B2        B2 (3)
   53    22           2.4947935084          67.8867826597      A1        A1 (1)
   54    23           2.7128107877          73.8193344370      A1        A1 (1)
   55    46           2.7159100217          73.9036688804      B1        B1 (2)
   56    69           2.7240411095          74.1249270289      B2        B2 (3)
   57    87           2.8552464845          77.6952067901      A2        A2 (4)
   58    70           2.8650316728          77.9614753025      B2        B2 (3)
   59    71           3.5557005428          96.7555307256      B2        B2 (3)
   60    24           3.7059960884         100.8452804402      A1        A1 (1)
   61    88           3.9720361555         108.0845987064      A2        A2 (4)
   62    47           4.0392453392         109.9134535720      B1        B1 (2)
   63    72           4.1623432460         113.2631179100      B2        B2 (3)
   64    25           4.1710101325         113.4989558798      A1        A1 (1)
   65    48           4.2966643883         116.9181820105      B1        B1 (2)
   66    89           4.3645304641         118.7649118190      A2        A2 (4)
   67    49           4.3708612257         118.9371806002      B1        B1 (2)
   68    73           4.4471003962         121.0117538981      B2        B2 (3)
   69    26           4.4727862007         121.7107001730      A1        A1 (1)
   70    27           4.6257816995         125.8739193503      A1        A1 (1)
   71    74           4.6753352072         127.2223388463      B2        B2 (3)
   72    75           4.9964249386         135.9596346332      B2        B2 (3)
   73    90           5.0579347128         137.6334006824      A2        A2 (4)
   74    28           5.1510632881         140.1675580498      A1        A1 (1)
   75    76           5.2496929717         142.8514081839      B2        B2 (3)
   76    50           5.3625839784         145.9233286511      B1        B1 (2)
   77    29           5.6428071601         153.5485890844      A1        A1 (1)
   78    30           6.0443618478         164.4754476483      A1        A1 (1)
   79    77           6.5611086449         178.5368428664      B2        B2 (3)
   80    51           6.6920374039         182.0995955244      B1        B1 (2)
   81    31           6.7801361057         184.4968830772      A1        A1 (1)
   82    52           7.0957833967         193.0860825318      B1        B1 (2)
   83    91           7.1846388781         195.5039631016      A2        A2 (4)
   84    53           7.2167729503         196.3783756602      B1        B1 (2)
   85    32           7.2708793955         197.8506868861      A1        A1 (1)
   86    78           7.3049649475         198.7782019096      B2        B2 (3)
   87    92           7.3659188662         200.4368423613      A2        A2 (4)
   88    33           7.4281527302         202.1303118965      A1        A1 (1)
   89    79           7.7556511162         211.0419960407      B2        B2 (3)
   90    34           7.8874155153         214.6274876224      A1        A1 (1)
   91    80           8.5243018337         231.9580454145      B2        B2 (3)
   92    35          14.5423428947         395.7172680409      A1        A1 (1)


  VSCF finished.

 @CHECKOUT-I, Total execution time (CPU/WALL):        0.78/       0.52 seconds.
--executable xvscf finished with status     0 in        0.54 seconds (walltime).
 --invoking executable--
/home/qc/cfour_v2.1_intel_2017_eland2/bin/xvtran
 @GETMEM-I,  Allocated   30517 MB of main memory.
  Full RHF integral transformation
  The following   1 MOs will be dropped:
    1
  There are  91 active molecular orbitals.
  Transformation of IIII integrals :
  1 pass through the AO integral file was required.
      262932 AO integrals were read.
      266728 MO integrals were written to HF2.
  Transformation of IIJJ integrals :
  1 pass through the AO integral file was required.
      466389 AO integrals were read.
      480525 MO integrals were written to HF2.
  Transformation of IJIJ integrals :
  1 pass through the AO integral file was required.
      865293 AO integrals were read.
      887262 MO integrals were written to HF2.
  Transformation of IJKL integrals :
  1 pass through the AO integral file was required.
      575256 AO integrals were read.
      594864 MO integrals were written to HF2.
  Summary of active molecular orbitals: 
------------------------------------------------------------------------
 
  Index      Eigenvalue    Symmetry    Index      Eigenvalue    Symmetry
------------------------------------------------------------------------
     1        -1.3274920        1        47         4.0392453        2
     2        -0.5656640        1        48         4.2966644        2
     3        -0.5049647        2        49         4.3708612        2
     4        -0.7025893        3        50         5.3625840        2
     5         0.0291226        1        51         6.6920374        2
     6         0.1363950        1        52         7.0957834        2
     7         0.1718418        1        53         7.2167730        2
     8         0.2422739        1        54         0.0471336        3
     9         0.3126219        1        55         0.1815228        3
    10         0.4274902        1        56         0.2252761        3
    11         0.6477277        1        57         0.3638854        3
    12         0.7112551        1        58         0.4580807        3
    13         0.8112065        1        59         0.6008626        3
    14         0.8995410        1        60         0.9023242        3
    15         0.9701671        1        61         0.9261560        3
    16         1.0078560        1        62         1.0308072        3
    17         1.1573195        1        63         1.1054415        3
    18         1.5857612        1        64         1.2767586        3
    19         1.8163172        1        65         1.7301784        3
    20         2.0671707        1        66         1.9512616        3
    21         2.3233591        1        67         2.4380828        3
    22         2.3960964        1        68         2.7240411        3
    23         2.4947935        1        69         2.8650317        3
    24         2.7128108        1        70         3.5557005        3
    25         3.7059961        1        71         4.1623432        3
    26         4.1710101        1        72         4.4471004        3
    27         4.4727862        1        73         4.6753352        3
    28         4.6257817        1        74         4.9964249        3
    29         5.1510633        1        75         5.2496930        3
    30         5.6428072        1        76         6.5611086        3
    31         6.0443618        1        77         7.3049649        3
    32         6.7801361        1        78         7.7556511        3
    33         7.2708794        1        79         8.5243018        3
    34         7.4281527        1        80         0.2627964        4
    35         7.8874155        1        81         0.7191746        4
    36        14.5423429        1        82         0.9136399        4
    37         0.1599604        2        83         1.1584165        4
    38         0.3043366        2        84         1.5018755        4
    39         0.7321936        2        85         2.3076714        4
    40         0.8386264        2        86         2.8552465        4
    41         0.9322970        2        87         3.9720362        4
    42         1.0779906        2        88         4.3645305        4
    43         1.5723844        2        89         5.0579347        4
    44         2.2523015        2        90         7.1846389        4
    45         2.3987130        2        91         7.3659189        4
    46         2.7159100        2
------------------------------------------------------------------------
  -1.32749203303764      -0.565664010292766      -0.504964673782959     
 -0.702589341864300       2.912263613665432E-002  0.136394950151945     
  0.171841801477849       0.242273859172488       0.312621942694708     
  0.427490248832537       0.647727683523885       0.711255059326249     
  0.811206542290321       0.899540969789129       0.970167096566408     
   1.00785596646092        1.15731945363067        1.58576120375736     
   1.81631724932528        2.06717074853307        2.32335905039973     
   2.39609637433433        2.49479350835668        2.71281078774399     
   3.70599608839538        4.17101013246663        4.47278620068238     
   4.62578169951946        5.15106328808578        5.64280716005143     
   6.04436184778086        6.78013610573172        7.27087939549926     
   7.42815273024701        7.88741551531607        14.5423428946606     
  0.159960423040785       0.304336640700208       0.732193614084895     
  0.838626364045442       0.932297046923555        1.07799056910135     
   1.57238442468145        2.25230148660893        2.39871295316125     
   2.71591002169947        4.03924533921358        4.29666438827430     
   4.37086122567941        5.36258397840711        6.69203740389059     
   7.09578339673191        7.21677295025694       4.713358062350052E-002
  0.181522779179493       0.225276091852269       0.363885439586085     
  0.458080735196710       0.600862627393122       0.902324219274460     
  0.926156027766243        1.03080719075605        1.10544154309676     
   1.27675860059711        1.73017843087965        1.95126162254117     
   2.43808284352920        2.72404110953344        2.86503167283099     
   3.55570054279513        4.16234324602702        4.44710039615701     
   4.67533520718704        4.99642493858508        5.24969297165210     
   6.56110864493494        7.30496494748590        7.75565111624236     
   8.52430183371190       0.262796357678039       0.719174561630562     
  0.913639876760344        1.15841651158132        1.50187554930064     
   2.30767135560892        2.85524648445683        3.97203615551613     
   4.36453046407596        5.05793471280761        7.18463887806783     
   7.36591886619373     
 @CHECKOUT-I, Total execution time (CPU/WALL):        0.93/       0.52 seconds.
--executable xvtran finished with status     0 in        0.54 seconds (walltime).
 --invoking executable--
/home/qc/cfour_v2.1_intel_2017_eland2/bin/xintprc
 @GETMEM-I,  Allocated   30517 MB of main memory.
  @GMOIAA-I, Processing MO integrals for spin case AA.
  @GMOIAA-I, Generation of integral list completed.
                      TYPE                NUMBER
                      ----               --------
                      PPPP               1862118
                      PPPH                340336
                      PPHH                 15793
                      PHPH                 10160
                      PHHH                   950
                      HHHH                    22

                     TOTAL               2229379

  @FORMT2-I, Second-order MP correlation energies:
            ------------------------------------------------
            E(SCF)                  =    -76.052924923973 a.u.
            E2(AA)                  =     -0.032949287304 a.u.
            E2(AB)                  =     -0.205819619642 a.u.
            E2(TOT)                 =     -0.271718194250 a.u.
            Total MP2 energy        =    -76.324643118223 a.u.
            ------------------------------------------------
   Largest T2 amplitudes for spin case AB:
       _       _                 _       _                 _       _
   i   j   a   b             i   j   a   b             i   j   a   b
-----------------------------------------------------------------------------
[  4   4  58  58]-0.02148 [  2   2  14  14]-0.01922 [  3   3  42  42]-0.01620
[  3   3  41  41]-0.01486 [  4   2  58  14]-0.01399 [  2   4  14  58]-0.01399
[  4   4  62  58]-0.01357 [  4   4  58  62]-0.01357 [  3   3  42  41]-0.01349
[  3   3  41  42]-0.01349 [  4   4  58  55]-0.01322 [  4   4  55  58]-0.01322
[  3   2  41  14]-0.01304 [  2   3  14  41]-0.01304 [  4   4  11  11]-0.01269
-----------------------------------------------------------------------------
   Norm of T2AB vector (    31238 symmetry allowed elements):  0.2227250138.
-----------------------------------------------------------------------------
 @CHECKOUT-I, Total execution time (CPU/WALL):        0.53/       0.34 seconds.
--executable xintprc finished with status     0 in        0.36 seconds (walltime).
  calling xvcc 
 --invoking executable--
/home/qc/cfour_v2.1_intel_2017_eland2/bin/xvcc
 @GETMEM-I,  Allocated   30517 MB of main memory.
   CC3 energy will be calculated.
   The total correlation energy is -0.271718194250 a.u.
   The total correlation energy is -0.279355230867 a.u.
  Convergence information after     1 iterations: 
  Largest element of residual vector : -0.10334866E-01.
  Largest element of DIIS residual   : -0.10334866E-01.
   The total correlation energy is -0.284175672832 a.u.
  Convergence information after     2 iterations: 
  Largest element of residual vector : -0.16064383E-02.
  Largest element of DIIS residual   : -0.17977010E-02.
   The total correlation energy is -0.285091485730 a.u.
  Convergence information after     3 iterations: 
  Largest element of residual vector : -0.18510373E-02.
  Largest element of DIIS residual   : -0.11555507E-02.
   The total correlation energy is -0.285593494562 a.u.
  Convergence information after     4 iterations: 
  Largest element of residual vector : -0.25818615E-03.
  Largest element of DIIS residual   : -0.14005241E-03.
   The total correlation energy is -0.285630884864 a.u.
  Convergence information after     5 iterations: 
  Largest element of residual vector : -0.14803581E-03.
  Largest element of DIIS residual   :  0.75566957E-04.
   The total correlation energy is -0.285634489969 a.u.
  Convergence information after     6 iterations: 
  Largest element of residual vector :  0.37155517E-04.
  Largest element of DIIS residual   :  0.26562338E-04.
   The total correlation energy is -0.285633770082 a.u.
  Convergence information after     7 iterations: 
  Largest element of residual vector :  0.19297628E-04.
  Largest element of DIIS residual   :  0.11001849E-04.
   The total correlation energy is -0.285633702278 a.u.
  Convergence information after     8 iterations: 
  Largest element of residual vector :  0.54120765E-05.
  Largest element of DIIS residual   :  0.29935596E-05.
   The total correlation energy is -0.285633956804 a.u.
  Convergence information after     9 iterations: 
  Largest element of residual vector :  0.19473740E-05.
  Largest element of DIIS residual   :  0.15144257E-05.
   The total correlation energy is -0.285633983427 a.u.
  Convergence information after    10 iterations: 
  Largest element of residual vector :  0.62666407E-06.
  Largest element of DIIS residual   :  0.38878758E-06.
   The total correlation energy is -0.285633998079 a.u.
  Convergence information after    11 iterations: 
  Largest element of residual vector :  0.21769068E-06.
  Largest element of DIIS residual   :  0.95636195E-07.
   The total correlation energy is -0.285634001001 a.u.
  Convergence information after    12 iterations: 
  Largest element of residual vector :  0.61674840E-07.
  Largest element of DIIS residual   :  0.28482706E-07.
   The total correlation energy is -0.285634001674 a.u.
  Convergence information after    13 iterations: 
  Largest element of residual vector :  0.11723300E-07.
  Largest element of DIIS residual   :  0.93396949E-08.
   The total correlation energy is -0.285634002144 a.u.
  Convergence information after    14 iterations: 
  Largest element of residual vector :  0.79437085E-08.
  Largest element of DIIS residual   :  0.40800565E-08.
   The total correlation energy is -0.285634002417 a.u.
  Convergence information after    15 iterations: 
  Largest element of residual vector :  0.25387622E-08.
  Largest element of DIIS residual   :  0.15294964E-08.
   The total correlation energy is -0.285634002475 a.u.
  Convergence information after    16 iterations: 
  Largest element of residual vector :  0.11097718E-08.
  Largest element of DIIS residual   :  0.35451920E-09.
   The total correlation energy is -0.285634002499 a.u.
  Convergence information after    17 iterations: 
  Largest element of residual vector :  0.30792142E-09.
  Largest element of DIIS residual   :  0.11697936E-09.
  Amplitude equations converged in    17iterations.
   The total correlation energy is -0.285634002506 a.u.
   The CC iterations have converged.

   Largest T1 amplitudes for spin case AA:
   i       a                 i       a                 i       a    
-----------------------------------------------------------------------------
[  3      37    ]-0.01532 [  3      38    ]-0.01270 [  2       6    ] 0.00891
[  2       9    ] 0.00794 [  4      66    ]-0.00545 [  2       5    ] 0.00404
[  3      47    ]-0.00391 [  3      40    ] 0.00371 [  4      62    ]-0.00351
[  2      20    ]-0.00346 [  4      73    ]-0.00340 [  2      28    ]-0.00337
[  3      41    ] 0.00298 [  2      13    ] 0.00282 [  1      14    ]-0.00276
-----------------------------------------------------------------------------
   Norm of T1AA vector (      107 symmetry allowed elements):  0.0283286095.
-----------------------------------------------------------------------------
   Largest T2 amplitudes for spin case AB:
       _       _                 _       _                 _       _
   i   j   a   b             i   j   a   b             i   j   a   b
-----------------------------------------------------------------------------
[  4   4  58  58]-0.02476 [  2   2  14  14]-0.02101 [  3   3  42  42]-0.01717
[  3   3  41  41]-0.01593 [  4   4  62  58]-0.01568 [  4   4  58  62]-0.01568
[  4   4  59  59]-0.01500 [  4   4  58  55]-0.01492 [  4   4  55  58]-0.01492
[  3   3  42  41]-0.01472 [  3   3  41  42]-0.01472 [  3   3  37  37]-0.01471
[  2   2  59  59]-0.01420 [  4   2  58  14]-0.01403 [  2   4  14  58]-0.01403
-----------------------------------------------------------------------------
   Norm of T2AB vector (    31238 symmetry allowed elements):  0.2506874212.
-----------------------------------------------------------------------------
       Summary of iterative solution of CC equations 
      -----------------------------------------------------------
                       Correlation           Total
       Iteration         Energy              Energy
      -----------------------------------------------------------
            0        -0.271718194250     -76.324643118223  DIIS 
            1        -0.279355230867     -76.332280154840  DIIS 
            2        -0.284175672832     -76.337100596805  DIIS 
            3        -0.285091485730     -76.338016409702  DIIS 
            4        -0.285593494562     -76.338518418535  DIIS 
            5        -0.285630884864     -76.338555808837  DIIS 
            6        -0.285634489969     -76.338559413941  DIIS 
            7        -0.285633770082     -76.338558694054  DIIS 
            8        -0.285633702278     -76.338558626251  DIIS 
            9        -0.285633956804     -76.338558880776  DIIS 
           10        -0.285633983427     -76.338558907400  DIIS 
           11        -0.285633998079     -76.338558922052  DIIS 
           12        -0.285634001001     -76.338558924974  DIIS 
           13        -0.285634001674     -76.338558925647  DIIS 
           14        -0.285634002144     -76.338558926116  DIIS 
           15        -0.285634002417     -76.338558926390  DIIS 
           16        -0.285634002475     -76.338558926448  DIIS 
           17        -0.285634002506     -76.338558926479  DIIS 
      -----------------------------------------------------------
      A miracle has come to pass. The CC iterations have converged.
      The reference energy is       -76.05292492397270 a.u.
      The correlation energy is      -0.28563400250603 a.u.
      The total energy is           -76.33855892647873 a.u.
 @CHECKOUT-I, Total execution time (CPU/WALL):       25.89/      12.98 seconds.
--executable xvcc finished with status     0 in       13.11 seconds (walltime).
 --invoking executable--
/home/qc/cfour_v2.1_intel_2017_eland2/bin/xlambda
 @GETMEM-I,  Allocated   30517 MB of main memory.
 Hbar is calculated for a CCSD wave function.
 Calculation of Hbar completed.
 @CHECKOUT-I, Total execution time (CPU/WALL):        0.42/       0.23 seconds.
--executable xlambda finished with status     0 in        0.25 seconds (walltime).
 --invoking executable--
/home/qc/cfour_v2.1_intel_2017_eland2/bin/xvip
 @GETMEM-I,  Allocated   30517 MB of main memory.
 IPs are calculated using the EOMIP-CCSD method.
  Summary of active alpha molecular orbitals:
------------------------------------------------------------------------------
Orbital Symm. Eigenvalue  <xx>     <yy>     <zz>     <xy>     <xz>     <yz>
------------------------------------------------------------------------------
    1     1      -1.3275   0.000    0.000    0.000    0.000    0.000    0.000
    2     1      -0.5657   0.000    0.000    0.000    0.000    0.000    0.000
    3     2      -0.5050   0.000    0.000    0.000    0.000    0.000    0.000
    4     3      -0.7026   0.000    0.000    0.000    0.000    0.000    0.000
    5     1       0.0291   0.000    0.000    0.000    0.000    0.000    0.000
    6     1       0.1364   0.000    0.000    0.000    0.000    0.000    0.000
    7     1       0.1718   0.000    0.000    0.000    0.000    0.000    0.000
    8     1       0.2423   0.000    0.000    0.000    0.000    0.000    0.000
    9     1       0.3126   0.000    0.000    0.000    0.000    0.000    0.000
   10     1       0.4275   0.000    0.000    0.000    0.000    0.000    0.000
   11     1       0.6477   0.000    0.000    0.000    0.000    0.000    0.000
   12     1       0.7113   0.000    0.000    0.000    0.000    0.000    0.000
   13     1       0.8112   0.000    0.000    0.000    0.000    0.000    0.000
   14     1       0.8995   0.000    0.000    0.000    0.000    0.000    0.000
   15     1       0.9702   0.000    0.000    0.000    0.000    0.000    0.000
   16     1       1.0079   0.000    0.000    0.000    0.000    0.000    0.000
   17     1       1.1573   0.000    0.000    0.000    0.000    0.000    0.000
   18     1       1.5858   0.000    0.000    0.000    0.000    0.000    0.000
   19     1       1.8163   0.000    0.000    0.000    0.000    0.000    0.000
   20     1       2.0672   0.000    0.000    0.000    0.000    0.000    0.000
   21     1       2.3234   0.000    0.000    0.000    0.000    0.000    0.000
   22     1       2.3961   0.000    0.000    0.000    0.000    0.000    0.000
   23     1       2.4948   0.000    0.000    0.000    0.000    0.000    0.000
   24     1       2.7128   0.000    0.000    0.000    0.000    0.000    0.000
   25     1       3.7060   0.000    0.000    0.000    0.000    0.000    0.000
   26     1       4.1710   0.000    0.000    0.000    0.000    0.000    0.000
   27     1       4.4728   0.000    0.000    0.000    0.000    0.000    0.000
   28     1       4.6258   0.000    0.000    0.000    0.000    0.000    0.000
   29     1       5.1511   0.000    0.000    0.000    0.000    0.000    0.000
   30     1       5.6428   0.000    0.000    0.000    0.000    0.000    0.000
   31     1       6.0444   0.000    0.000    0.000    0.000    0.000    0.000
   32     1       6.7801   0.000    0.000    0.000    0.000    0.000    0.000
   33     1       7.2709   0.000    0.000    0.000    0.000    0.000    0.000
   34     1       7.4282   0.000    0.000    0.000    0.000    0.000    0.000
   35     1       7.8874   0.000    0.000    0.000    0.000    0.000    0.000
   36     1      14.5423   0.000    0.000    0.000    0.000    0.000    0.000
   37     2       0.1600   0.000    0.000    0.000    0.000    0.000    0.000
   38     2       0.3043   0.000    0.000    0.000    0.000    0.000    0.000
   39     2       0.7322   0.000    0.000    0.000    0.000    0.000    0.000
   40     2       0.8386   0.000    0.000    0.000    0.000    0.000    0.000
   41     2       0.9323   0.000    0.000    0.000    0.000    0.000    0.000
   42     2       1.0780   0.000    0.000    0.000    0.000    0.000    0.000
   43     2       1.5724   0.000    0.000    0.000    0.000    0.000    0.000
   44     2       2.2523   0.000    0.000    0.000    0.000    0.000    0.000
   45     2       2.3987   0.000    0.000    0.000    0.000    0.000    0.000
   46     2       2.7159   0.000    0.000    0.000    0.000    0.000    0.000
   47     2       4.0392   0.000    0.000    0.000    0.000    0.000    0.000
   48     2       4.2967   0.000    0.000    0.000    0.000    0.000    0.000
   49     2       4.3709   0.000    0.000    0.000    0.000    0.000    0.000
   50     2       5.3626   0.000    0.000    0.000    0.000    0.000    0.000
   51     2       6.6920   0.000    0.000    0.000    0.000    0.000    0.000
   52     2       7.0958   0.000    0.000    0.000    0.000    0.000    0.000
   53     2       7.2168   0.000    0.000    0.000    0.000    0.000    0.000
   54     3       0.0471   0.000    0.000    0.000    0.000    0.000    0.000
   55     3       0.1815   0.000    0.000    0.000    0.000    0.000    0.000
   56     3       0.2253   0.000    0.000    0.000    0.000    0.000    0.000
   57     3       0.3639   0.000    0.000    0.000    0.000    0.000    0.000
   58     3       0.4581   0.000    0.000    0.000    0.000    0.000    0.000
   59     3       0.6009   0.000    0.000    0.000    0.000    0.000    0.000
   60     3       0.9023   0.000    0.000    0.000    0.000    0.000    0.000
   61     3       0.9262   0.000    0.000    0.000    0.000    0.000    0.000
   62     3       1.0308   0.000    0.000    0.000    0.000    0.000    0.000
   63     3       1.1054   0.000    0.000    0.000    0.000    0.000    0.000
   64     3       1.2768   0.000    0.000    0.000    0.000    0.000    0.000
   65     3       1.7302   0.000    0.000    0.000    0.000    0.000    0.000
   66     3       1.9513   0.000    0.000    0.000    0.000    0.000    0.000
   67     3       2.4381   0.000    0.000    0.000    0.000    0.000    0.000
   68     3       2.7240   0.000    0.000    0.000    0.000    0.000    0.000
   69     3       2.8650   0.000    0.000    0.000    0.000    0.000    0.000
   70     3       3.5557   0.000    0.000    0.000    0.000    0.000    0.000
   71     3       4.1623   0.000    0.000    0.000    0.000    0.000    0.000
   72     3       4.4471   0.000    0.000    0.000    0.000    0.000    0.000
   73     3       4.6753   0.000    0.000    0.000    0.000    0.000    0.000
   74     3       4.9964   0.000    0.000    0.000    0.000    0.000    0.000
   75     3       5.2497   0.000    0.000    0.000    0.000    0.000    0.000
   76     3       6.5611   0.000    0.000    0.000    0.000    0.000    0.000
   77     3       7.3050   0.000    0.000    0.000    0.000    0.000    0.000
   78     3       7.7557   0.000    0.000    0.000    0.000    0.000    0.000
   79     3       8.5243   0.000    0.000    0.000    0.000    0.000    0.000
   80     4       0.2628   0.000    0.000    0.000    0.000    0.000    0.000
   81     4       0.7192   0.000    0.000    0.000    0.000    0.000    0.000
   82     4       0.9136   0.000    0.000    0.000    0.000    0.000    0.000
   83     4       1.1584   0.000    0.000    0.000    0.000    0.000    0.000
   84     4       1.5019   0.000    0.000    0.000    0.000    0.000    0.000
   85     4       2.3077   0.000    0.000    0.000    0.000    0.000    0.000
   86     4       2.8552   0.000    0.000    0.000    0.000    0.000    0.000
   87     4       3.9720   0.000    0.000    0.000    0.000    0.000    0.000
   88     4       4.3645   0.000    0.000    0.000    0.000    0.000    0.000
   89     4       5.0579   0.000    0.000    0.000    0.000    0.000    0.000
   90     4       7.1846   0.000    0.000    0.000    0.000    0.000    0.000
   91     4       7.3659   0.000    0.000    0.000    0.000    0.000    0.000
------------------------------------------------------------------------------
  nsizec is                    331
  @DOEOMIP2-I, right-hand eigenvectors will be computed.
  Beginning symmetry block   2.   1 roots requested.
  1   1  0.5844783009D+00  0.1590446314D+02  0.0000000000D+00  0.4600153630D+00
  2   2  0.5271039139D+00  0.1434322669D+02  0.9944808348D+00  0.8942764341D-01
  3   3  0.5063708871D+00  0.1377905235D+02  0.9968079240D+00  0.2163950890D-01
  4   4  0.5053797887D+00  0.1375208319D+02  0.9998682207D+00  0.4254463719D-02
  L-O-C-K-I-N-G O-N R-O-O-T 
  5   5  0.5052669643D+00  0.1374901309D+02  0.9999964971D+00  0.1030100669D-02
  6   6  0.5052609818D+00  0.1374885029D+02  0.9999997723D+00  0.1808198962D-03
  7   7  0.5052612364D+00  0.1374885722D+02  0.9999999909D+00  0.4880950626D-04
  8   8  0.5052607723D+00  0.1374884459D+02  0.9999999995D+00  0.8981394260D-05
  9   9  0.5052608325D+00  0.1374884623D+02  0.1000000000D+01  0.2154847950D-05
 10  10  0.5052608252D+00  0.1374884603D+02  0.1000000000D+01  0.4017691610D-06
 11  11  0.5052608275D+00  0.1374884609D+02  0.1000000000D+01  0.7015074709D-07
 12  12  0.5052608274D+00  0.1374884609D+02  0.1000000000D+01  0.1197685118D-07
 13  13  0.5052608274D+00  0.1374884609D+02  0.1000000000D+01  0.2276328013D-08
 14  14  0.5052608274D+00  0.1374884609D+02  0.1000000000D+01  0.3733899239D-09
 15  15  0.5052608274D+00  0.1374884609D+02  0.1000000000D+01  0.7319336071D-10
  Converged eigenvalue:   0.505260827419726       a.u.
   Total EOMIP-CCSD electronic energy     -75.83329809905899 a.u.
          --------------------------------
             I    J    A       C(IJA)
          --------------------------------
              0    3    0   -0.6977062204
              3    3   37   -0.0371603261
              3    3   41    0.0315841147
              3    3   42    0.0277356369
              4    3   58    0.0275552860
              3    3   38   -0.0263695115
              2    3   14    0.0235974464
              2    3    6    0.0228749223
              4    3   55    0.0221470366
              2    3    9    0.0204850326
              1    3   10    0.0159623469
              3    3   40    0.0158361893
              4    3   62    0.0148731277
              1    3    7    0.0132595744
              2    3   10    0.0130455584
          --------------------------------

  Eigenvector is saved on CCRE_1_1  

  VIP all done  ! 
 @CHECKOUT-I, Total execution time (CPU/WALL):        0.16/       0.11 seconds.
--executable xvip finished with status     0 in        0.13 seconds (walltime).
  The final electronic energy is       -75.833298099058993 a.u. 
  This computation required                           15.89 seconds (walltime).
 
Timing info
25.565u 4.230s 0:15.90 187.3% 0+0k 432+501984io 152pf+0w
 
Scratch space info (BEFORE cleaning //scratch/mdavis)
 
Cleaning up ...
Filesystem      Size  Used Avail Use% Mounted on
/dev/sda9       785G   27G  719G   4% /scratch
 
Scratch space info (AFTER cleaning //scratch/mdavis)
Filesystem      Size  Used Avail Use% Mounted on
/dev/sda9       785G   26G  720G   4% /scratch
