 --invoking executable--
/home/qc/cfour_v2.1_intel_2017_eland2/bin/xjoda


   *************************************************************************
         <<<     CCCCCC     CCCCCC   |||     CCCCCC     CCCCCC   >>>
       <<<      CCC        CCC       |||    CCC        CCC         >>>
      <<<      CCC        CCC        |||   CCC        CCC            >>>
    <<<        CCC        CCC        |||   CCC        CCC              >>>
      <<<      CCC        CCC        |||   CCC        CCC            >>>
       <<<      CCC        CCC       |||    CCC        CCC         >>>
         <<<     CCCCCC     CCCCCC   |||     CCCCCC     CCCCCC   >>>
   *************************************************************************

     ****************************************************************
     * CFOUR Coupled-Cluster techniques for Computational Chemistry *
     ****************************************************************
 

   Department of Chemistry                Institut fuer Physikalische Chemie
   University of Florida                  Universitaet Mainz
   Gainesville, FL 32611, USA             D-55099 Mainz, Germany

   Department of Chemistry                Fakultaet fuer Chemie und Biowiss.
   Johns Hopkins University               Karlsruher Institut fuer Technologie
   Baltimore, MD 21218, USA               D-76131 Karlsruhe, Germany

   Department of Chemistry                Department of Physical Chemistry
   Southern Methodist University          Eotvos Lorand University
   Dallas, TX 75275, USA                  H-1053 Budapest, Hungary

 
                       Version 2.1
 
                     node16                                            
                     Fri 04 Nov 2022 09:26:48 AM CDT                   
                     integer*8 version is running
 
********************************************************************************
*                          Input from ZMAT file                                *
********************************************************************************
h2o AUG-PVTZ CC3                                                                
H        0.0000000000       -1.5533946651       -0.9640405749                   
O        0.0000000000       -0.0000000000        0.1118169598                   
H        0.0000000000        1.5533946651       -0.9640405749                   
                                                                                
                                                                                
                                                                                
*CFOUR(CALC=CC3,BASIS=AUG-PVTZ,COORDINATES=CARTESIAN,UNITS=BOHR                 
CC_CONV=9                                                                       
LINEQ_CONV=12                                                                   
SCF_CONV=9                                                                      
ESTATE_CONV=10                                                                  
CHARGE=0                                                                        
MULTIPLICITY=1                                                                  
FROZEN_CORE=ON                                                                  
RELATIVISTIC=OFF                                                                
REFERENCE=RHF                                                                   
EXCITE=EOMIP                                                                    
ESTATE_SYM=0/1/0/0                                                              
MEM_UNIT=GB,MEMORY_SIZE=32)                                                     
                                                                                
H:APVTZ-X2C                                                                     
O:APVTZ-X2C                                                                     
H:APVTZ-X2C                                                                     
                                                                                
********************************************************************************
    -------------------------------------------------------------------
                    CFOUR Control Parameters 
    -------------------------------------------------------------------
        External           Internal           Value            Units
          Name               Name
    -------------------------------------------------------------------
       ABCDTYPE             IABCDT         STANDARD    [  0]    ***   
       ANHARMONIC           IANHAR         OFF         [  0]    ***   
       ANH_ALGORIT          IANALG         STANDARD    [  0]    ***   
       ANH_DERIVAT          IANDER         SECOND      [  1]    ***   
       ANH_MODE             ANHMOD         VIBRATION   [  0]    ***   
       ANH_STEPSIZ          ICUBST             50000          x 10-6  
       ANH_SYMMETR          IANHSM         ABELIAN     [  0]    ***   
       AO_LADDERS           IAOLAD         SINGLEPASS  [  1]    ***   
       AV_SCF               IAVSCF         OFF         [  0]    ***   
       BASIS                IBASIS         AUG-PVTZ    [ 34]    ***   
       BOTHVECTORS          BOTHVC         OFF         [  0]    ***   
       BOX_POTENT           IPIAB          OFF         [  0]    ***   
       BREIT                IBREIT         OFF         [  0]    ***   
       BRUCK_CONV           IBRTOL          10D-  4             ***   
       BRUECKNER            IBRKNR         OFF         [  0]    ***   
       BUFFERSIZE           IBUFFS              4096            ***   
       CACHE_RECS           ICHREC             10               ***   
       CALCLEVEL            ICLLVL         CC3         [ 32]    ***   
       CCORBOPT             ICCORB         OFF         [  0]  x 0.01  
       CC_CONV              ICCCNV          10D-  9             ***   
       CC_EXPORDER          ICCEOR              5               ***   
       CC_EXTRAPOL          ICCEXT         DIIS        [  1]    ***   
       CC_GUESS             ICCGES         MP2         [  0]    ***   
       CC_MAXCYC            ICCCYC            100              cycles 
       CC_PROGRAM           ICCPRO         VCC         [  0]    ***   
       CHARGE               ICHRGE              0               ***   
       CHOLESKY             ICHOLE         OFF         [  0]    ***   
       CIS_CONV             ICISTL              5               ***   
       COMM_SIZE            IPSIZE            ***               ***   
       CONSTANT             ICONST         OLD         [  1]    ***   
       CONTINUUM            ICONTU         NONE        [  0]    ***   
       CONTRACTION          ICNTYP         GENERAL     [  1]    ***   
       COORDINATES          ICOORD         CARTESIAN   [  1]    ***   
       CPHF_CONVER          ICPHFT          10D- 16             ***   
       CPHF_MAXCYC          ICPHFC             64              cycles 
       CUBIC                ICUBIC         OFF         [  0]    ***   
       CURVILINEAR          ICURVY         OFF         [  0]    ***   
       DBOC                 IDBOC          OFF         [  0]    ***   
       DCT                  IDCT           OFF         [  0]    ***   
       DERIV_LEV            IDRLVL         ZERO        [  0]    ***   
       DEVMEM_SIZE          IDVMEM         *********           MByte  
       DIAG_MRCC            IEOMST          10D-  0             ***   
       DIFF_TYPE            IDIFTY         RELAXED     [  0]    ***   
       DIRECT               IDIRCT         OFF         [  0]    ***   
       DROPMO               IDRPMO      NONE         
       ECP                  IECP           OFF         [  0]    ***   
       EIGENVECTOR          IVEC                1               ***   
       EL_ANHARM            IELANH         OFF         [  0]    ***   
       EOMFOLLOW            IEOMSR         ENERGY      [  0]    ***   
       EOMIP                IEOMIP         OFF         [  0]    ***   
       EOMLEVEL             HBARFM         SAME        [  0]    ***   
       EOM_MRCC             IMRCCE         NEW         [  1]    ***   
       EOM_NONIT            EOMNON         OFF         [  0]    ***   
       EOM_NSING            IEOMSI          10D-  0             ***   
       EOM_NSTATES          IMRCCD         DAVIDSON    [  0]    ***   
       EOM_NTRIP            IEOMTR          10D-  0             ***   
       EOM_ORDER            IEXORD         ENERGY      [  0]    ***   
       EOM_PROPSTA          IEOMST              0               ***   
       ESTATE_CONV          IEXTOL          10D- 10             ***   
       ESTATE_DIAG          IEXDIG         ITERATIVE   [  0]    ***   
       ESTATE_LOCK          IESLOC         ON          [  1]    ***   
       ESTATE_MAXC          IEXMXC             40               ***   
       ESTATE_PROP          IEXPRP         OFF         [  0]    ***   
       ESTATE_SYM           IEXSYM   0,  1,  0,  0,
       EVAL_HESS            IRECAL              0            # of cyc.
       EXCITATION           IEXCIT              0               ***   
       EXCITE               IEXCIT         EOMIP       [  4]    ***   
       EXTERN_POT           IEXPOT         OFF         [  0]    ***   
       FCGRADNEW            IFCGNW         OFF         [  0]    ***   
       FC_FIELD             IFINFC              0             x 10-6  
       FD_CALTYPE           IFDCAL         GRADONLY    [  0]    ***   
       FD_PROJECT           IFDPRJ         OFF         [  1]    ***   
       FD_STEPSIZE          IDISFD              0            10-4 bohr
       FD_USEGROUP          IFDGRP         FULL        [  0]    ***   
       FILE_RECSIZ          IFLREC              4096           words  
       FINITE_PERT          IFIPER              0             x 10-6  
       FIXGEOM              IFIXGM         OFF         [  0]    ***   
       FOCK                 IFOCK          AO          [  1]    ***   
       FREQ_ALGORI          IVIALG         STANDARD    [  0]    ***   
       FROZEN_CORE          IFROCO         ON          [  1]    ***   
       GAMMA_ABCD           IGABCD         STORE       [  0]    ***   
       GAMMA_ABCI           IGABCI         STORE       [  0]    ***   
       GENBAS_1             IGNBS1              0               ***   
       GENBAS_2             IGNBS2              0               ***   
       GENBAS_3             IGNBS3              0               ***   
       GENBAS_4             IGNBS4              0               ***   
       GEO_CONV             ICONTL              5              H/bohr 
       GEO_MAXCYC           IOPTCY             50               ***   
       GEO_MAXSTEP          IMXSTP            300            millibohr
       GEO_METHOD           INR            SINGLE_POINT[  5]    ***   
       GIAO                 IGIAO          OFF         [  1]    ***   
       GIMIC                IGIMIC         OFF         [  0]    ***   
       GRID                 IGRID          OFF         [  0]    ***   
       GRID_ALGO            IGALGO         SERIAL      [  0]    ***   
       GUESS                IGUESS         MOREAD      [  0]    ***   
       HBAR                 IHBAR          ON          [  1]    ***   
       HESS_TYPE            IHESTP         SCF         [  0]    ***   
       HF2_FILE             IHF2Fl         USE         [  1]    ***   
       HFSTABILITY          ISTABL         OFF         [  0]    ***   
       INCORE               INCORE         OFF         [  0]    ***   
       INPUT_MRCC           IMRCC          ON          [  1]    ***   
       INTEGRALS            INTTYP         VMOL        [  1]    ***   
       JODA_PRINT           IJPRNT              0               ***   
       KEYWORD_OUT          IDMPKW         NO          [  0]    ***   
       LINDEP_TOL           ILINDP              8               ***   
       LINEQ_CONV           IZTACN          10D- 12           cycles  
       LINEQ_EXPOR          ILMAXD              5               ***   
       LINEQ_MAXCY          ILMAXC            100               ***   
       LINEQ_TYPE           ILTYPE         DIIS        [  1]    ***   
       LOCK_ORBOCC          ILOCOC         OFF         [  0]    ***   
       MEMORY_SIZE          IMEMSZ         *********           words  
       MEM_UNIT             IMEMU          GB          [  3]    ***   
       MRCC                 IMRCCC         OFF         [  0]    ***   
       MULTIPLICTY          IMULTP              1               ***   
       NACOUPLING           IVCOUP         OFF         [  0]    ***   
       NEGEVAL              IDIE           ABORT       [  0]    ***   
       NEWNORM              INEWNO         OFF         [  0]    ***   
       NON-HF               INONHF         OFF         [  0]    ***   
       NTOP_TAMP            ITOPT2             15               ***   
       NUC_MODEL            INUCMO         POINT       [  0]    ***   
       OCCUPATION           IOCCU   ESTIMATED BY SCF 
       OPEN-SHELL           IOPEN          SPIN-ORBITAL[  0]    ***   
       OPTVIB               IOPTVB         OFF         [  0]    ***   
       ORBITALS             IORBTP         STANDARD    [  0]    ***   
       PARALLEL             IPARAL         ON          [  1]    ***   
       PARA_INT             IPINTS         ON          [  1]    ***   
       PARA_PRINT           IPPRIN              0               ***   
       PERT_ORB             IPTORB         STANDARD    [  0]    ***   
       POINTS               IGRDFD              0               ***   
       PRINT                IPRNT               0               ***   
       PROPS                IPROPS         OFF         [  0]    ***   
       PROP_INTEGR          IINTYP         INTERNAL    [  0]    ***   
       PSI                  IPSI           OFF         [  0]    ***   
       QC_ALG               IQCALG         FLM         [  0]    ***   
       QC_LINALG            IQCLIN         TRIDIAG     [  2]    ***   
       QC_MAXCYC            IQCMAX          10D-100           cycles  
       QC_MAXSCFCY          IQCMSC          10D- 15           cycles  
       QC_RTRUST            IQCRTR          10D-  0           x 10-3  
       QC_SKIPSCF           IQCSKI         OFF         [  0]    ***   
       QC_START             IQCSTA          10D-  1             ***   
       QRHFGUESS            IQGUES         OFF         [  0]    ***   
       QUARTIC              IQUART         OFF         [  0]    ***   
       RAMAN_INT            IRAMIN         OFF         [  0]    ***   
       RAMAN_ORB            IRAMRE         UNRELAXED   [  0]    ***   
       RDO                  IRDOFM         OFF         [  0]    ***   
       REDUCE_REPR          REDREP         Ir          [  0]    ***   
       REFERENCE            IREFNC         RHF         [  0]    ***   
       RELATIVIST           IRELAT         OFF         [  0]    ***   
       RELAX_DENS           IRDENS         OFF         [  0]    ***   
       RESET_FLAGS          IRESET         OFF         [  0]    ***   
       RESTART_CC           ICCRES         OFF         [  0]    ***   
       ROT_EVEC             ROTVEC              0               ***   
       SAVE_INTS            ISVINT         OFF         [  0]    ***   
       SCALE_ON             ISTCRT              0               ***   
       SCF_CONV             ISCFCV          10D-  9             ***   
       SCF_DAMPING          IDAMP               0             x 10-3  
       SCF_EXPORDE          IRPPOR              6               ***   
       SCF_EXPSTAR          IRPPLS              8               ***   
       SCF_EXTRAPO          IRPP           ON          [  1]    ***   
       SCF_MAXCYC           ISCFCY            150              cycles 
       SCF_NOSTOP           ISCFST         OFF         [  0]    ***   
       SCF_PRINT            ISCFPR              0               ***   
       SCF_PROG             ISCFPR         SCF         [  0]    ***   
       SD_FIELD             IFINSD              0             x 10-6  
       SOPERT               IPERSO         OFF         [  0]    ***   
       SPHERICAL            IDFGHI         ON          [  1]    ***   
       SPINORBIT            ISOCAL         OFF         [  0]    ***   
       SPINROTATIO          ISRCON         OFF         [  0]    ***   
       SPIN_FLIP            ISPFLP         OFF         [  0]    ***   
       SPIN_ORBIT           ISPORB         OFF         [  0]    ***   
       SPIN_SCAL            ISCSMP         OFF         [  0]    ***   
       STEEPSCALE           ISTPSC              1000          x 10-3  
       SUBGROUP             ISUBGP         DEFAULT     [  0]    ***   
       SUBGRPAXIS           ISBXYZ         X           [  0]    ***   
       SYMMETRY             ISYM           ON          [  0]    ***   
       SYM_CHECK            ISYMCK         OVERRIDE    [  1]    ***   
       T3_EXTRAPOL          IT3EXT         OFF         [  0]    ***   
       T4_EXTRAPOL          IT4EXP         OFF         [  0]    ***   
       TAMP_SUM             IEVERY              5               ***   
       TESTSUITE            ITESTS         OFF         [  0]    ***   
       THERMOCH             ITHERM         OFF         [  0]    ***   
       TOL_CHOLESK          ITOLCH          10D-  4             ***   
       TRANGRAD             IRESRM         OFF         [  0]    ***   
       TRANS_INV            ITRAIN         USE         [  0]    ***   
       TREAT_PERT           ITREAT         SIMULTANEOUS[  0]    ***   
       TRIP_ALGORI          ITRALG         NORMAL      [  0]    ***   
       UIJ_THRESHO          IUIJTH              1               ***   
       UNITS                IUNITS         BOHR        [  1]    ***   
       UNOS                 IUNOS          OFF         [  0]    ***   
       UPDATE_HESS          IHUPDT         ON          [  1]    ***   
       VIBPHASE             ISETPH         STANDARD    [  0]    ***   
       VIBRATION            IVIB           NO          [  0]    ***   
       VIB_ALGORIT          IGEALG         STANDARD    [  0]    ***   
       VNATORB              IVNORB         OFF         [  0]    ***   
       VTRAN                IVTRAN         FULL/PARTIAL[  0]    ***   
       XFIELD               IXEFLD              0             x 10-6  
       XFORM_TOL            IXFTOL          10D- 11             ***   
       YFIELD               IYEFLD              0             x 10-6  
       ZFIELD               IZEFLD              0             x 10-6  
       ZSCALE_EXP           IZEXPS         OFF         [  0]    ***   
    -------------------------------------------------------------------
  @GETXYZ-I,     3 atoms read from ZMAT.
   Rotational constants (in cm-1): 
          8.6795838801            12.3770092272            29.0546203614
   Rotational constants (in MHz): 
     260207.4150386933        371053.4538737024        871035.7274685109
********************************************************************************
   The full molecular point group is C2v .
   The largest Abelian subgroup of the full molecular point group is C2v .
   The computational point group is C2v .
********************************************************************************


 ----------------------------------------------------------------
         Coordinates used in calculation (QCOMP) 
 ----------------------------------------------------------------
 Z-matrix   Atomic            Coordinates (in bohr)
  Symbol    Number           X              Y              Z
 ----------------------------------------------------------------
     H         1         0.00000000    -1.55339467    -0.95545307
     O         8         0.00000000     0.00000000     0.12040446
     H         1         0.00000000     1.55339467    -0.95545307
 ----------------------------------------------------------------
 
   Interatomic distance matrix (Angstroms) 
 
                 H             O             H    
                [ 1]        [ 2]        [ 3]
  H    [ 1]     0.00000
  O    [ 2]     0.99992     0.00000
  H    [ 3]     1.64404     0.99992     0.00000
 rotcon2
   Rotational constants (in cm-1): 
          8.6795838801            29.0546203614            12.3770092272
   Rotational constants (in MHz): 
     260207.4150386933        871035.7274685109        371053.4538737024
  There is   1 frozen-core orbital.
  There are   92 basis functions.
 @GEOPT-W, Archive file not created for single-point calculation.
 @CHECKOUT-I, Total execution time (CPU/WALL):        0.11/       0.13 seconds.
--executable xjoda finished with status     0 in        0.15 seconds (walltime).
 --invoking executable--
/home/qc/cfour_v2.1_intel_2017_eland2/bin/xvmol
 SERIAL VERSION OF MOLECULE STARTED
********************************************************************************
                    INPUT FROM MOL FILE
********************************************************************************
INTGRL        1    0    1    0    0    0    0    0    0                         
         *** CFOUR Program System (Release V0.1) ***                            
h2o AUG-PVTZ CC3                                                                
    2    2 X  Y       0.10E-08              0    0                              
   9999.00      3.00                                                            
          1.00000000    1    3    1    1    1                                   
H #1   0.000000000000000  -1.553394665100000  -0.955453074803855                
    6    4                                                                      
   33.8700000000000       6.068000000000000E-003  0.000000000000000E+000        
  0.000000000000000E+000  0.000000000000000E+000                                
   5.09500000000000       4.530800000000000E-002  0.000000000000000E+000        
  0.000000000000000E+000  0.000000000000000E+000                                
   1.15900000000000       0.202822000000000       0.000000000000000E+000        
  0.000000000000000E+000  0.000000000000000E+000                                
  0.325800000000000       0.503903000000000        1.00000000000000             
  0.000000000000000E+000  0.000000000000000E+000                                
  0.102700000000000       0.383421000000000       0.000000000000000E+000        
   1.00000000000000       0.000000000000000E+000                                
  2.526000000000000E-002  0.000000000000000E+000  0.000000000000000E+000        
  0.000000000000000E+000   1.00000000000000                                     
    3    3                                                                      
   1.40700000000000        1.00000000000000       0.000000000000000E+000        
  0.000000000000000E+000                                                        
  0.388000000000000       0.000000000000000E+000   1.00000000000000             
  0.000000000000000E+000                                                        
  0.102000000000000       0.000000000000000E+000  0.000000000000000E+000        
   1.00000000000000                                                             
    2    2                                                                      
   1.05700000000000        1.00000000000000       0.000000000000000E+000        
  0.247000000000000       0.000000000000000E+000   1.00000000000000             
          8.00000000    1    4    1    1    1    1                              
O #2   0.000000000000000   0.000000000000000   0.120404459896145                
   11    5                                                                      
   15330.0000000000       5.080000000000000E-004 -1.150000000000000E-004        
  0.000000000000000E+000  0.000000000000000E+000  0.000000000000000E+000        
   2299.00000000000       3.929000000000000E-003 -8.950000000000000E-004        
  0.000000000000000E+000  0.000000000000000E+000  0.000000000000000E+000        
   522.400000000000       2.024300000000000E-002 -4.636000000000000E-003        
  0.000000000000000E+000  0.000000000000000E+000  0.000000000000000E+000        
   147.300000000000       7.918100000000000E-002 -1.872400000000000E-002        
  0.000000000000000E+000  0.000000000000000E+000  0.000000000000000E+000        
   47.5500000000000       0.230687000000000      -5.846300000000000E-002        
  0.000000000000000E+000  0.000000000000000E+000  0.000000000000000E+000        
   16.7600000000000       0.433118000000000      -0.136463000000000             
  0.000000000000000E+000  0.000000000000000E+000  0.000000000000000E+000        
   6.20700000000000       0.350260000000000      -0.175740000000000             
  0.000000000000000E+000  0.000000000000000E+000  0.000000000000000E+000        
   1.75200000000000       4.272800000000000E-002  0.160934000000000             
   1.00000000000000       0.000000000000000E+000  0.000000000000000E+000        
  0.688200000000000      -8.154000000000000E-003  0.603418000000000             
  0.000000000000000E+000  0.000000000000000E+000  0.000000000000000E+000        
  0.238400000000000       2.381000000000000E-003  0.378765000000000             
  0.000000000000000E+000   1.00000000000000       0.000000000000000E+000        
  7.376000000000001E-002  0.000000000000000E+000  0.000000000000000E+000        
  0.000000000000000E+000  0.000000000000000E+000   1.00000000000000             
    6    4                                                                      
   34.4600000000000       1.592800000000000E-002  0.000000000000000E+000        
  0.000000000000000E+000  0.000000000000000E+000                                
   7.74900000000000       9.974000000000000E-002  0.000000000000000E+000        
  0.000000000000000E+000  0.000000000000000E+000                                
   2.28000000000000       0.310492000000000       0.000000000000000E+000        
  0.000000000000000E+000  0.000000000000000E+000                                
  0.715600000000000       0.491026000000000        1.00000000000000             
  0.000000000000000E+000  0.000000000000000E+000                                
  0.214000000000000       0.336337000000000       0.000000000000000E+000        
   1.00000000000000       0.000000000000000E+000                                
  5.974000000000000E-002  0.000000000000000E+000  0.000000000000000E+000        
  0.000000000000000E+000   1.00000000000000                                     
    3    3                                                                      
   2.31400000000000        1.00000000000000       0.000000000000000E+000        
  0.000000000000000E+000                                                        
  0.645000000000000       0.000000000000000E+000   1.00000000000000             
  0.000000000000000E+000                                                        
  0.214000000000000       0.000000000000000E+000  0.000000000000000E+000        
   1.00000000000000                                                             
    2    2                                                                      
   1.42800000000000        1.00000000000000       0.000000000000000E+000        
  0.500000000000000       0.000000000000000E+000   1.00000000000000             
FINISH                                                                          
 
********************************************************************************
 ONE- AND TWO-ELECTRON INTEGRALS OVER SYMMETRY-ADAPTED AOS ARE CALCULATED.

  SPHERICAL HARMONICS ARE USED.
  
  INTEGRALS LESS THAN  0.10E-13 ARE NEGLECTED.

  NUCLEAR REPULSION ENERGY :    8.7893755040 A.U.
  @MOLECU-I, ONE ELECTRON INTEGRALS (CPU/WALL):        0.02/       0.02 SECONDS.
  @TWOEL-I,     262933 INTEGRALS OF SYMMETRY TYPE  I I I I
  @TWOEL-I,     865293 INTEGRALS OF SYMMETRY TYPE  I J I J
  @TWOEL-I,     466389 INTEGRALS OF SYMMETRY TYPE  I I J J
  @TWOEL-I,     575256 INTEGRALS OF SYMMETRY TYPE  I J K L
  @TWOEL-I, TOTAL NUMBER OF 2-E INTEGRALS    2169871.
  @MOLECU-I, TWO ELECTRON INTEGRALS (CPU/WALL):        0.70/       0.70 SECONDS.
 @CHECKOUT-I, Total execution time (CPU/WALL):        0.72/       0.73 seconds.

OMP_NUM_THREADS not specified; defaulting to 1
Running with 1 threads/proc

--executable xvmol finished with status     0 in        0.75 seconds (walltime).
 --invoking executable--
/home/qc/cfour_v2.1_intel_2017_eland2/bin/xvmol2ja
 @GETMEM-I,  Allocated   30517 MB of main memory.
 @CHECKOUT-I, Total execution time (CPU/WALL):        0.01/       0.01 seconds.
--executable xvmol2ja finished with status     0 in        0.03 seconds (walltime).
 --invoking executable--
/home/qc/cfour_v2.1_intel_2017_eland2/bin/xvscf
  There are   92 functions in the AO basis.

  There are 4 irreducible representations.

       Irrep        # of functions
         1                 35
         2                 18
         3                 27
         4                 12


  Parameters for SCF calculation: 
        SCF reference function:  RHF  
  Maximum number of iterations:  150
     Full symmetry point group: C2v 
     Computational point group: C2v 
        Initial density matrix: MOREAD                 
     SCF convergence tolerance: 10**(- 9)
  DIIS convergence acceleration:  ON
          Latest start for DIIS:   8
                     DIIS order:   6

  Memory information:     401180 words required.
  Fock matrices are constructed from AO integral file.
 @GETMEM-I,  Allocated       3 MB of main memory.
  Initialization and symmetry analysis required      0.001 seconds.

  @INITGES-I, Occupancies from core Hamiltonian:

          Alpha population by irrep:   3    1    1    0
           Beta population by irrep:   3    1    1    0


 total no. of electrons in initial guess :  0.000000000000000E+000
  --------------------------------------------------------------------
  Iteration         Total Energy            Largest Density Difference
  --------------------------------------------------------------------
       0             8.789375504027893              0.0000000000D+00
   current occupation vector 
     3  1  1  0
     3  1  1  0
       1           -61.242269617908399              0.1230576998D+02
   current occupation vector 
     3  1  1  0
     3  1  1  0
       2           -63.679416867504905              0.2913777001D+02
   current occupation vector 
     3  0  2  0
     3  0  2  0
       3           -70.779781375130014              0.2916470490D+02
   current occupation vector 
     3  1  1  0
     3  1  1  0
       4           -67.780115798306298              0.2475691875D+02
   current occupation vector 
     3  0  2  0
     3  0  2  0
       5           -72.144260062239226              0.2475647939D+02
   current occupation vector 
     3  1  1  0
     3  1  1  0
       6           -68.750014218867591              0.2323044596D+02
   current occupation vector 
     3  0  2  0
     3  0  2  0
       7           -72.515557338525369              0.2323056777D+02
   current occupation vector 
     3  1  1  0
     3  1  1  0
       8           -69.015965322401854              0.2284145539D+02
   current occupation vector 
     3  0  2  0
     3  0  2  0
       9           -75.758472538589515              0.2284236914D+02
   current occupation vector 
     3  1  1  0
     3  1  1  0
      10           -76.042818478418212              0.5313988878D+00
   current occupation vector 
     3  1  1  0
     3  1  1  0
      11           -76.053412662391281              0.9037186983D-01
   current occupation vector 
     3  1  1  0
     3  1  1  0
      12           -76.053538723679765              0.1179325897D-01
   current occupation vector 
     3  1  1  0
     3  1  1  0
      13           -76.053550401512609              0.3763038762D-02
   current occupation vector 
     3  1  1  0
     3  1  1  0
      14           -76.053552331390520              0.2264665313D-02
   current occupation vector 
     3  1  1  0
     3  1  1  0
      15           -76.053552371615751              0.3606537588D-03
   current occupation vector 
     3  1  1  0
     3  1  1  0
      16           -76.053552372332007              0.3405583263D-04
   current occupation vector 
     3  1  1  0
     3  1  1  0
      17           -76.053552372415950              0.1754320583D-04
   current occupation vector 
     3  1  1  0
     3  1  1  0
      18           -76.053552372417968              0.3060296006D-05
   current occupation vector 
     3  1  1  0
     3  1  1  0
      19           -76.053552372418181              0.3120219005D-06
   current occupation vector 
     3  1  1  0
     3  1  1  0
      20           -76.053552372417855              0.3596178744D-07
   current occupation vector 
     3  1  1  0
     3  1  1  0
      21           -76.053552372418210              0.8739123813D-08
   current occupation vector 
     3  1  1  0
     3  1  1  0
      22           -76.053552372418082              0.1236327485D-08
   current occupation vector 
     3  1  1  0
     3  1  1  0

  SCF has converged.

 Density matrix saved to file den.dat
 total electron number:   10.0000000000000     
     E(SCF)=       -76.053552372418096              0.4587591418D-09

  Eigenvector printing suppressed.

 @PUTMOS-I, Writing converged MOs to NEWMOS. 
 @PUTMOS-I, Symmetry   1 Full Blocks  8 Partial Blocksize   3
 @PUTMOS-I, Symmetry   2 Full Blocks  4 Partial Blocksize   2
 @PUTMOS-I, Symmetry   3 Full Blocks  6 Partial Blocksize   3
 @PUTMOS-I, Symmetry   4 Full Blocks  3 Partial Blocksize   0
 @PUTFOCK-I, Writing converged Fock matrix to NEWFOCK. 
 @PUTFOCK-I, Symmetry   1 Full Blocks  8 Partial Blocksize   3
 @PUTFOCK-I, Symmetry   2 Full Blocks  4 Partial Blocksize   2
 @PUTFOCK-I, Symmetry   3 Full Blocks  6 Partial Blocksize   3
 @PUTFOCK-I, Symmetry   4 Full Blocks  3 Partial Blocksize   0


 
  ORBITAL EIGENVALUES (ALPHA)  (1H = 27.2113834 eV)

       MO #        E(hartree)               E(eV)           FULLSYM    COMPSYM
       ----   --------------------   --------------------   -------   ---------
    1     1         -20.5714981123        -559.7789222471      A1        A1 (1)
    2     2          -1.3287383105         -36.1568076054      A1        A1 (1)
    3    54          -0.7054182103         -19.1954053785      B2        B2 (3)
    4     3          -0.5652463585         -15.3811353778      A1        A1 (1)
    5    36          -0.5050373989         -13.7427662941      B1        B1 (2)
  +++++++++++++++++++++++++++++++++++++++++++++++++++++++++++++++++++++++++++++
    6     4           0.0292061663           0.7947401888      A1        A1 (1)
    7    55           0.0471157108           1.2820836696      B2        B2 (3)
    8     5           0.1365007872           3.7143752548      A1        A1 (1)
    9    37           0.1596960832           4.3455513466      B1        B1 (2)
   10     6           0.1718321684           4.6757910137      A1        A1 (1)
   11    56           0.1814178881           4.9366317078      B2        B2 (3)
   12    57           0.2258196325           6.1448645997      B2        B2 (3)
   13     7           0.2423145123           6.5937130977      A1        A1 (1)
   14    81           0.2626029822           7.1457904305      A2        A2 (4)
   15    38           0.3051197197           8.3027296750      B1        B1 (2)
   16     8           0.3132009715           8.5226317164      A1        A1 (1)
   17    58           0.3639194473           9.9027516061      B2        B2 (3)
   18     9           0.4281058108          11.6493513534      A1        A1 (1)
   19    59           0.4588675464          12.4864207351      B2        B2 (3)
   20    60           0.6014078571          16.3651397781      B2        B2 (3)
   21    10           0.6474145691          17.6170460599      A1        A1 (1)
   22    11           0.7116493311          19.3649627944      A1        A1 (1)
   23    82           0.7185916750          19.5538735775      A2        A2 (4)
   24    39           0.7318213565          19.9138715128      B1        B1 (2)
   25    12           0.8120121568          22.0959741242      A1        A1 (1)
   26    40           0.8388032730          22.8249974597      B1        B1 (2)
   27    13           0.8986038743          24.4522545487      A1        A1 (1)
   28    61           0.9029911163          24.5716374716      B2        B2 (3)
   29    83           0.9137025718          24.8631109961      A2        A2 (4)
   30    62           0.9261547600          25.2019522623      B2        B2 (3)
   31    41           0.9326764339          25.3794160302      B1        B1 (2)
   32    14           0.9719628756          26.4484544585      A1        A1 (1)
   33    15           1.0089529113          27.4550045015      A1        A1 (1)
   34    63           1.0318539232          28.0781727177      B2        B2 (3)
   35    42           1.0789619783          29.3600480657      B1        B1 (2)
   36    64           1.1072408540          30.1295553945      B2        B2 (3)
   37    16           1.1579471234          31.5093431321      A1        A1 (1)
   38    84           1.1586209891          31.5276799484      A2        A2 (4)
   39    65           1.2756310222          34.7116848207      B2        B2 (3)
   40    85           1.5039567753          40.9247444301      A2        A2 (4)
   41    43           1.5757091675          42.8772262828      B1        B1 (2)
   42    17           1.5886047576          43.2281331311      A1        A1 (1)
   43    66           1.7277990569          47.0158025761      B2        B2 (3)
   44    18           1.8138299378          49.3568218591      A1        A1 (1)
   45    67           1.9577274395          53.2724719486      B2        B2 (3)
   46    19           2.0709432380          56.3532304481      A1        A1 (1)
   47    44           2.2521244030          61.2834205951      B1        B1 (2)
   48    86           2.3088275486          62.8263916283      A2        A2 (4)
   49    20           2.3223859649          63.1953348950      A1        A1 (1)
   50    21           2.3955432839          65.1860467491      A1        A1 (1)
   51    45           2.3977740023          65.2467476840      B1        B1 (2)
   52    68           2.4375133963          66.3281115700      B2        B2 (3)
   53    22           2.4906535199          67.7741278461      A1        A1 (1)
   54    23           2.7167706527          73.9270878415      A1        A1 (1)
   55    46           2.7168192972          73.9284115257      B1        B1 (2)
   56    69           2.7232856712          74.1043705063      B2        B2 (3)
   57    87           2.8565640055          77.7310583610      A2        A2 (4)
   58    70           2.8715181027          78.1379800337      B2        B2 (3)
   59    71           3.5599684573          96.8716665834      B2        B2 (3)
   60    24           3.7133591227         101.0456387910      A1        A1 (1)
   61    88           3.9740162648         108.1384802194      A2        A2 (4)
   62    47           4.0430382794         110.0166647206      B1        B1 (2)
   63    72           4.1649389310         113.3337500880      B2        B2 (3)
   64    25           4.1769206447         113.6597890956      A1        A1 (1)
   65    48           4.3033102378         117.0990247706      B1        B1 (2)
   66    89           4.3670786071         118.8342503159      A2        A2 (4)
   67    49           4.3721464703         118.9721538840      B1        B1 (2)
   68    73           4.4470402823         121.0101181174      B2        B2 (3)
   69    26           4.4791188071         121.8830191550      A1        A1 (1)
   70    27           4.6279306393         125.9323949733      A1        A1 (1)
   71    74           4.6784160158         127.3061719102      B2        B2 (3)
   72    75           5.0049310599         136.1910979616      B2        B2 (3)
   73    90           5.0693637112         137.9443995407      A2        A2 (4)
   74    28           5.1613676789         140.4479547791      A1        A1 (1)
   75    76           5.2610294277         143.1598888352      B2        B2 (3)
   76    50           5.3714636021         146.1649554967      B1        B1 (2)
   77    29           5.6571126988         153.9378625850      A1        A1 (1)
   78    30           6.0390981085         164.3322140202      A1        A1 (1)
   79    77           6.5624178717         178.5724687372      B2        B2 (3)
   80    51           6.6922116595         182.1043372605      B1        B1 (2)
   81    31           6.7792822535         184.4736485779      A1        A1 (1)
   82    52           7.1038324503         193.3051084151      B1        B1 (2)
   83    91           7.1904614388         195.6624030338      A2        A2 (4)
   84    53           7.2169563660         196.3833666550      B1        B1 (2)
   85    32           7.2672290719         197.7513565324      A1        A1 (1)
   86    78           7.3225086351         199.2555899191      B2        B2 (3)
   87    92           7.3666287474         200.4561592120      A2        A2 (4)
   88    33           7.4382493461         202.4050547817      A1        A1 (1)
   89    79           7.7562601239         211.0585679828      B2        B2 (3)
   90    34           7.8981086152         214.9184616630      A1        A1 (1)
   91    80           8.5398429648         232.3809410907      B2        B2 (3)
   92    35          14.6448126741         398.5056124950      A1        A1 (1)


  VSCF finished.

 @CHECKOUT-I, Total execution time (CPU/WALL):        0.78/       0.52 seconds.
--executable xvscf finished with status     0 in        0.54 seconds (walltime).
 --invoking executable--
/home/qc/cfour_v2.1_intel_2017_eland2/bin/xvtran
 @GETMEM-I,  Allocated   30517 MB of main memory.
  Full RHF integral transformation
  The following   1 MOs will be dropped:
    1
  There are  91 active molecular orbitals.
  Transformation of IIII integrals :
  1 pass through the AO integral file was required.
      262933 AO integrals were read.
      266728 MO integrals were written to HF2.
  Transformation of IIJJ integrals :
  1 pass through the AO integral file was required.
      466389 AO integrals were read.
      480525 MO integrals were written to HF2.
  Transformation of IJIJ integrals :
  1 pass through the AO integral file was required.
      865293 AO integrals were read.
      887262 MO integrals were written to HF2.
  Transformation of IJKL integrals :
  1 pass through the AO integral file was required.
      575256 AO integrals were read.
      594864 MO integrals were written to HF2.
  Summary of active molecular orbitals: 
------------------------------------------------------------------------
 
  Index      Eigenvalue    Symmetry    Index      Eigenvalue    Symmetry
------------------------------------------------------------------------
     1        -1.3287383        1        47         4.0430383        2
     2        -0.5652464        1        48         4.3033102        2
     3        -0.5050374        2        49         4.3721465        2
     4        -0.7054182        3        50         5.3714636        2
     5         0.0292062        1        51         6.6922117        2
     6         0.1365008        1        52         7.1038325        2
     7         0.1718322        1        53         7.2169564        2
     8         0.2423145        1        54         0.0471157        3
     9         0.3132010        1        55         0.1814179        3
    10         0.4281058        1        56         0.2258196        3
    11         0.6474146        1        57         0.3639194        3
    12         0.7116493        1        58         0.4588675        3
    13         0.8120122        1        59         0.6014079        3
    14         0.8986039        1        60         0.9029911        3
    15         0.9719629        1        61         0.9261548        3
    16         1.0089529        1        62         1.0318539        3
    17         1.1579471        1        63         1.1072409        3
    18         1.5886048        1        64         1.2756310        3
    19         1.8138299        1        65         1.7277991        3
    20         2.0709432        1        66         1.9577274        3
    21         2.3223860        1        67         2.4375134        3
    22         2.3955433        1        68         2.7232857        3
    23         2.4906535        1        69         2.8715181        3
    24         2.7167707        1        70         3.5599685        3
    25         3.7133591        1        71         4.1649389        3
    26         4.1769206        1        72         4.4470403        3
    27         4.4791188        1        73         4.6784160        3
    28         4.6279306        1        74         5.0049311        3
    29         5.1613677        1        75         5.2610294        3
    30         5.6571127        1        76         6.5624179        3
    31         6.0390981        1        77         7.3225086        3
    32         6.7792823        1        78         7.7562601        3
    33         7.2672291        1        79         8.5398430        3
    34         7.4382493        1        80         0.2626030        4
    35         7.8981086        1        81         0.7185917        4
    36        14.6448127        1        82         0.9137026        4
    37         0.1596961        2        83         1.1586210        4
    38         0.3051197        2        84         1.5039568        4
    39         0.7318214        2        85         2.3088275        4
    40         0.8388033        2        86         2.8565640        4
    41         0.9326764        2        87         3.9740163        4
    42         1.0789620        2        88         4.3670786        4
    43         1.5757092        2        89         5.0693637        4
    44         2.2521244        2        90         7.1904614        4
    45         2.3977740        2        91         7.3666287        4
    46         2.7168193        2
------------------------------------------------------------------------
  -1.32873831050560      -0.565246358544911      -0.505037398946293     
 -0.705418210326889       2.920616629815262E-002  0.136500787195899     
  0.171832168358352       0.242314512305353       0.313200971488064     
  0.428105810799387       0.647414569149949       0.711649331082710     
  0.812012156803760       0.898603874313387       0.971962875600368     
   1.00895291128266        1.15794712341364        1.58860475763767     
   1.81382993777127        2.07094323797355        2.32238596494876     
   2.39554328388474        2.49065351988305        2.71677065273612     
   3.71335912274682        4.17692064474605        4.47911880713051     
   4.62793063925138        5.16136767890785        5.65711269883450     
   6.03909810848327        6.77928225354194        7.26722907194963     
   7.43824934610620        7.89810861519939        14.6448126740577     
  0.159696083171047       0.305119719674802       0.731821356527769     
  0.838803273033808       0.932676433869792        1.07896197830625     
   1.57570916746575        2.25212440301932        2.39777400233314     
   2.71681929724049        4.04303827936040        4.30331023782583     
   4.37214647028973        5.37146360213085        6.69221165949592     
   7.10383245032278        7.21695636595302       4.711571075915264E-002
  0.181417888067613       0.225819632516433       0.363919447258909     
  0.458867546406572       0.601407857056892       0.902991116268060     
  0.926154760005866        1.03185392322788        1.10724085400646     
   1.27563102215027        1.72779905692228        1.95772743948660     
   2.43751339632256        2.72328567118366        2.87151810274159     
   3.55996845729659        4.16493893096306        4.44704028231955     
   4.67841601578428        5.00493105990268        5.26102942767720     
   6.56241787167635        7.32250863508373        7.75626012394674     
   8.53984296479063       0.262602982194947       0.718591675036735     
  0.913702571848054        1.15862098905188        1.50395677531373     
   2.30882754855977        2.85656400552515        3.97401626480354     
   4.36707860710486        5.06936371124396        7.19046143878730     
   7.36662874743884     
 @CHECKOUT-I, Total execution time (CPU/WALL):        0.92/       0.49 seconds.
--executable xvtran finished with status     0 in        0.51 seconds (walltime).
 --invoking executable--
/home/qc/cfour_v2.1_intel_2017_eland2/bin/xintprc
 @GETMEM-I,  Allocated   30517 MB of main memory.
  @GMOIAA-I, Processing MO integrals for spin case AA.
  @GMOIAA-I, Generation of integral list completed.
                      TYPE                NUMBER
                      ----               --------
                      PPPP               1862118
                      PPPH                340336
                      PPHH                 15793
                      PHPH                 10160
                      PHHH                   950
                      HHHH                    22

                     TOTAL               2229379

  @FORMT2-I, Second-order MP correlation energies:
            ------------------------------------------------
            E(SCF)                  =    -76.053552372418 a.u.
            E2(AA)                  =     -0.032914703788 a.u.
            E2(AB)                  =     -0.205570534204 a.u.
            E2(TOT)                 =     -0.271399941780 a.u.
            Total MP2 energy        =    -76.324952314198 a.u.
            ------------------------------------------------
   Largest T2 amplitudes for spin case AB:
       _       _                 _       _                 _       _
   i   j   a   b             i   j   a   b             i   j   a   b
-----------------------------------------------------------------------------
[  4   4  58  58]-0.02120 [  2   2  14  14]-0.01928 [  3   3  42  42]-0.01606
[  3   3  41  41]-0.01485 [  4   2  58  14]-0.01396 [  2   4  14  58]-0.01396
[  4   4  62  58]-0.01349 [  4   4  58  62]-0.01349 [  3   3  42  41]-0.01343
[  3   3  41  42]-0.01343 [  3   2  41  14]-0.01306 [  2   3  14  41]-0.01306
[  4   4  58  55]-0.01302 [  4   4  55  58]-0.01302 [  4   4  11  11]-0.01269
-----------------------------------------------------------------------------
   Norm of T2AB vector (    31238 symmetry allowed elements):  0.2222322578.
-----------------------------------------------------------------------------
 @CHECKOUT-I, Total execution time (CPU/WALL):        0.54/       0.36 seconds.
--executable xintprc finished with status     0 in        0.38 seconds (walltime).
  calling xvcc 
 --invoking executable--
/home/qc/cfour_v2.1_intel_2017_eland2/bin/xvcc
 @GETMEM-I,  Allocated   30517 MB of main memory.
   CC3 energy will be calculated.
   The total correlation energy is -0.271399941780 a.u.
   The total correlation energy is -0.279078313846 a.u.
  Convergence information after     1 iterations: 
  Largest element of residual vector : -0.10254272E-01.
  Largest element of DIIS residual   : -0.10254272E-01.
   The total correlation energy is -0.283862153991 a.u.
  Convergence information after     2 iterations: 
  Largest element of residual vector : -0.15918611E-02.
  Largest element of DIIS residual   : -0.17835862E-02.
   The total correlation energy is -0.284771143212 a.u.
  Convergence information after     3 iterations: 
  Largest element of residual vector : -0.18342746E-02.
  Largest element of DIIS residual   : -0.11479158E-02.
   The total correlation energy is -0.285264978911 a.u.
  Convergence information after     4 iterations: 
  Largest element of residual vector : -0.25731008E-03.
  Largest element of DIIS residual   : -0.13870071E-03.
   The total correlation energy is -0.285301665230 a.u.
  Convergence information after     5 iterations: 
  Largest element of residual vector : -0.14724628E-03.
  Largest element of DIIS residual   :  0.74340600E-04.
   The total correlation energy is -0.285305150094 a.u.
  Convergence information after     6 iterations: 
  Largest element of residual vector :  0.36550046E-04.
  Largest element of DIIS residual   :  0.26222842E-04.
   The total correlation energy is -0.285304433098 a.u.
  Convergence information after     7 iterations: 
  Largest element of residual vector :  0.18995965E-04.
  Largest element of DIIS residual   :  0.10879584E-04.
   The total correlation energy is -0.285304364177 a.u.
  Convergence information after     8 iterations: 
  Largest element of residual vector :  0.53415763E-05.
  Largest element of DIIS residual   :  0.29358227E-05.
   The total correlation energy is -0.285304613682 a.u.
  Convergence information after     9 iterations: 
  Largest element of residual vector :  0.19271285E-05.
  Largest element of DIIS residual   :  0.14914932E-05.
   The total correlation energy is -0.285304640638 a.u.
  Convergence information after    10 iterations: 
  Largest element of residual vector :  0.61925387E-06.
  Largest element of DIIS residual   :  0.38275810E-06.
   The total correlation energy is -0.285304654986 a.u.
  Convergence information after    11 iterations: 
  Largest element of residual vector :  0.21506415E-06.
  Largest element of DIIS residual   :  0.94472272E-07.
   The total correlation energy is -0.285304657850 a.u.
  Convergence information after    12 iterations: 
  Largest element of residual vector :  0.61092184E-07.
  Largest element of DIIS residual   :  0.28152604E-07.
   The total correlation energy is -0.285304658541 a.u.
  Convergence information after    13 iterations: 
  Largest element of residual vector :  0.11853919E-07.
  Largest element of DIIS residual   :  0.90267895E-08.
   The total correlation energy is -0.285304659001 a.u.
  Convergence information after    14 iterations: 
  Largest element of residual vector :  0.78112721E-08.
  Largest element of DIIS residual   :  0.39868076E-08.
   The total correlation energy is -0.285304659274 a.u.
  Convergence information after    15 iterations: 
  Largest element of residual vector :  0.25169740E-08.
  Largest element of DIIS residual   :  0.14928916E-08.
   The total correlation energy is -0.285304659332 a.u.
  Convergence information after    16 iterations: 
  Largest element of residual vector :  0.10829756E-08.
  Largest element of DIIS residual   :  0.34631180E-09.
   The total correlation energy is -0.285304659354 a.u.
  Convergence information after    17 iterations: 
  Largest element of residual vector :  0.30129760E-09.
  Largest element of DIIS residual   :  0.11308196E-09.
  Amplitude equations converged in    17iterations.
   The total correlation energy is -0.285304659361 a.u.
   The CC iterations have converged.

   Largest T1 amplitudes for spin case AA:
   i       a                 i       a                 i       a    
-----------------------------------------------------------------------------
[  3      37    ]-0.01519 [  3      38    ]-0.01261 [  2       6    ] 0.00889
[  2       9    ] 0.00795 [  4      66    ]-0.00540 [  2       5    ] 0.00397
[  3      47    ]-0.00391 [  3      40    ] 0.00371 [  4      62    ]-0.00346
[  2      20    ]-0.00341 [  4      73    ]-0.00338 [  2      28    ]-0.00335
[  3      41    ] 0.00294 [  2      13    ] 0.00280 [  1      14    ]-0.00274
-----------------------------------------------------------------------------
   Norm of T1AA vector (      107 symmetry allowed elements):  0.0281361342.
-----------------------------------------------------------------------------
   Largest T2 amplitudes for spin case AB:
       _       _                 _       _                 _       _
   i   j   a   b             i   j   a   b             i   j   a   b
-----------------------------------------------------------------------------
[  4   4  58  58]-0.02439 [  2   2  14  14]-0.02109 [  3   3  42  42]-0.01702
[  3   3  41  41]-0.01592 [  4   4  62  58]-0.01558 [  4   4  58  62]-0.01558
[  4   4  59  59]-0.01500 [  4   4  58  55]-0.01467 [  4   4  55  58]-0.01467
[  3   3  42  41]-0.01465 [  3   3  41  42]-0.01465 [  3   3  37  37]-0.01464
[  2   2  59  59]-0.01426 [  4   2  58  14]-0.01401 [  2   4  14  58]-0.01401
-----------------------------------------------------------------------------
   Norm of T2AB vector (    31238 symmetry allowed elements):  0.2500138767.
-----------------------------------------------------------------------------
       Summary of iterative solution of CC equations 
      -----------------------------------------------------------
                       Correlation           Total
       Iteration         Energy              Energy
      -----------------------------------------------------------
            0        -0.271399941780     -76.324952314198  DIIS 
            1        -0.279078313846     -76.332630686264  DIIS 
            2        -0.283862153991     -76.337414526409  DIIS 
            3        -0.284771143212     -76.338323515630  DIIS 
            4        -0.285264978911     -76.338817351329  DIIS 
            5        -0.285301665230     -76.338854037648  DIIS 
            6        -0.285305150094     -76.338857522512  DIIS 
            7        -0.285304433098     -76.338856805516  DIIS 
            8        -0.285304364177     -76.338856736595  DIIS 
            9        -0.285304613682     -76.338856986100  DIIS 
           10        -0.285304640638     -76.338857013056  DIIS 
           11        -0.285304654986     -76.338857027404  DIIS 
           12        -0.285304657850     -76.338857030268  DIIS 
           13        -0.285304658541     -76.338857030959  DIIS 
           14        -0.285304659001     -76.338857031420  DIIS 
           15        -0.285304659274     -76.338857031692  DIIS 
           16        -0.285304659332     -76.338857031750  DIIS 
           17        -0.285304659361     -76.338857031779  DIIS 
      -----------------------------------------------------------
      A miracle has come to pass. The CC iterations have converged.
      The reference energy is       -76.05355237241810 a.u.
      The correlation energy is      -0.28530465936125 a.u.
      The total energy is           -76.33885703177936 a.u.
 @CHECKOUT-I, Total execution time (CPU/WALL):       25.76/      12.91 seconds.
--executable xvcc finished with status     0 in       13.06 seconds (walltime).
 --invoking executable--
/home/qc/cfour_v2.1_intel_2017_eland2/bin/xlambda
 @GETMEM-I,  Allocated   30517 MB of main memory.
 Hbar is calculated for a CCSD wave function.
 Calculation of Hbar completed.
 @CHECKOUT-I, Total execution time (CPU/WALL):        0.43/       0.22 seconds.
--executable xlambda finished with status     0 in        0.26 seconds (walltime).
 --invoking executable--
/home/qc/cfour_v2.1_intel_2017_eland2/bin/xvip
 @GETMEM-I,  Allocated   30517 MB of main memory.
 IPs are calculated using the EOMIP-CCSD method.
  Summary of active alpha molecular orbitals:
------------------------------------------------------------------------------
Orbital Symm. Eigenvalue  <xx>     <yy>     <zz>     <xy>     <xz>     <yz>
------------------------------------------------------------------------------
    1     1      -1.3287   0.000    0.000    0.000    0.000    0.000    0.000
    2     1      -0.5652   0.000    0.000    0.000    0.000    0.000    0.000
    3     2      -0.5050   0.000    0.000    0.000    0.000    0.000    0.000
    4     3      -0.7054   0.000    0.000    0.000    0.000    0.000    0.000
    5     1       0.0292   0.000    0.000    0.000    0.000    0.000    0.000
    6     1       0.1365   0.000    0.000    0.000    0.000    0.000    0.000
    7     1       0.1718   0.000    0.000    0.000    0.000    0.000    0.000
    8     1       0.2423   0.000    0.000    0.000    0.000    0.000    0.000
    9     1       0.3132   0.000    0.000    0.000    0.000    0.000    0.000
   10     1       0.4281   0.000    0.000    0.000    0.000    0.000    0.000
   11     1       0.6474   0.000    0.000    0.000    0.000    0.000    0.000
   12     1       0.7116   0.000    0.000    0.000    0.000    0.000    0.000
   13     1       0.8120   0.000    0.000    0.000    0.000    0.000    0.000
   14     1       0.8986   0.000    0.000    0.000    0.000    0.000    0.000
   15     1       0.9720   0.000    0.000    0.000    0.000    0.000    0.000
   16     1       1.0090   0.000    0.000    0.000    0.000    0.000    0.000
   17     1       1.1579   0.000    0.000    0.000    0.000    0.000    0.000
   18     1       1.5886   0.000    0.000    0.000    0.000    0.000    0.000
   19     1       1.8138   0.000    0.000    0.000    0.000    0.000    0.000
   20     1       2.0709   0.000    0.000    0.000    0.000    0.000    0.000
   21     1       2.3224   0.000    0.000    0.000    0.000    0.000    0.000
   22     1       2.3955   0.000    0.000    0.000    0.000    0.000    0.000
   23     1       2.4907   0.000    0.000    0.000    0.000    0.000    0.000
   24     1       2.7168   0.000    0.000    0.000    0.000    0.000    0.000
   25     1       3.7134   0.000    0.000    0.000    0.000    0.000    0.000
   26     1       4.1769   0.000    0.000    0.000    0.000    0.000    0.000
   27     1       4.4791   0.000    0.000    0.000    0.000    0.000    0.000
   28     1       4.6279   0.000    0.000    0.000    0.000    0.000    0.000
   29     1       5.1614   0.000    0.000    0.000    0.000    0.000    0.000
   30     1       5.6571   0.000    0.000    0.000    0.000    0.000    0.000
   31     1       6.0391   0.000    0.000    0.000    0.000    0.000    0.000
   32     1       6.7793   0.000    0.000    0.000    0.000    0.000    0.000
   33     1       7.2672   0.000    0.000    0.000    0.000    0.000    0.000
   34     1       7.4382   0.000    0.000    0.000    0.000    0.000    0.000
   35     1       7.8981   0.000    0.000    0.000    0.000    0.000    0.000
   36     1      14.6448   0.000    0.000    0.000    0.000    0.000    0.000
   37     2       0.1597   0.000    0.000    0.000    0.000    0.000    0.000
   38     2       0.3051   0.000    0.000    0.000    0.000    0.000    0.000
   39     2       0.7318   0.000    0.000    0.000    0.000    0.000    0.000
   40     2       0.8388   0.000    0.000    0.000    0.000    0.000    0.000
   41     2       0.9327   0.000    0.000    0.000    0.000    0.000    0.000
   42     2       1.0790   0.000    0.000    0.000    0.000    0.000    0.000
   43     2       1.5757   0.000    0.000    0.000    0.000    0.000    0.000
   44     2       2.2521   0.000    0.000    0.000    0.000    0.000    0.000
   45     2       2.3978   0.000    0.000    0.000    0.000    0.000    0.000
   46     2       2.7168   0.000    0.000    0.000    0.000    0.000    0.000
   47     2       4.0430   0.000    0.000    0.000    0.000    0.000    0.000
   48     2       4.3033   0.000    0.000    0.000    0.000    0.000    0.000
   49     2       4.3721   0.000    0.000    0.000    0.000    0.000    0.000
   50     2       5.3715   0.000    0.000    0.000    0.000    0.000    0.000
   51     2       6.6922   0.000    0.000    0.000    0.000    0.000    0.000
   52     2       7.1038   0.000    0.000    0.000    0.000    0.000    0.000
   53     2       7.2170   0.000    0.000    0.000    0.000    0.000    0.000
   54     3       0.0471   0.000    0.000    0.000    0.000    0.000    0.000
   55     3       0.1814   0.000    0.000    0.000    0.000    0.000    0.000
   56     3       0.2258   0.000    0.000    0.000    0.000    0.000    0.000
   57     3       0.3639   0.000    0.000    0.000    0.000    0.000    0.000
   58     3       0.4589   0.000    0.000    0.000    0.000    0.000    0.000
   59     3       0.6014   0.000    0.000    0.000    0.000    0.000    0.000
   60     3       0.9030   0.000    0.000    0.000    0.000    0.000    0.000
   61     3       0.9262   0.000    0.000    0.000    0.000    0.000    0.000
   62     3       1.0319   0.000    0.000    0.000    0.000    0.000    0.000
   63     3       1.1072   0.000    0.000    0.000    0.000    0.000    0.000
   64     3       1.2756   0.000    0.000    0.000    0.000    0.000    0.000
   65     3       1.7278   0.000    0.000    0.000    0.000    0.000    0.000
   66     3       1.9577   0.000    0.000    0.000    0.000    0.000    0.000
   67     3       2.4375   0.000    0.000    0.000    0.000    0.000    0.000
   68     3       2.7233   0.000    0.000    0.000    0.000    0.000    0.000
   69     3       2.8715   0.000    0.000    0.000    0.000    0.000    0.000
   70     3       3.5600   0.000    0.000    0.000    0.000    0.000    0.000
   71     3       4.1649   0.000    0.000    0.000    0.000    0.000    0.000
   72     3       4.4470   0.000    0.000    0.000    0.000    0.000    0.000
   73     3       4.6784   0.000    0.000    0.000    0.000    0.000    0.000
   74     3       5.0049   0.000    0.000    0.000    0.000    0.000    0.000
   75     3       5.2610   0.000    0.000    0.000    0.000    0.000    0.000
   76     3       6.5624   0.000    0.000    0.000    0.000    0.000    0.000
   77     3       7.3225   0.000    0.000    0.000    0.000    0.000    0.000
   78     3       7.7563   0.000    0.000    0.000    0.000    0.000    0.000
   79     3       8.5398   0.000    0.000    0.000    0.000    0.000    0.000
   80     4       0.2626   0.000    0.000    0.000    0.000    0.000    0.000
   81     4       0.7186   0.000    0.000    0.000    0.000    0.000    0.000
   82     4       0.9137   0.000    0.000    0.000    0.000    0.000    0.000
   83     4       1.1586   0.000    0.000    0.000    0.000    0.000    0.000
   84     4       1.5040   0.000    0.000    0.000    0.000    0.000    0.000
   85     4       2.3088   0.000    0.000    0.000    0.000    0.000    0.000
   86     4       2.8566   0.000    0.000    0.000    0.000    0.000    0.000
   87     4       3.9740   0.000    0.000    0.000    0.000    0.000    0.000
   88     4       4.3671   0.000    0.000    0.000    0.000    0.000    0.000
   89     4       5.0694   0.000    0.000    0.000    0.000    0.000    0.000
   90     4       7.1905   0.000    0.000    0.000    0.000    0.000    0.000
   91     4       7.3666   0.000    0.000    0.000    0.000    0.000    0.000
------------------------------------------------------------------------------
  nsizec is                    331
  @DOEOMIP2-I, right-hand eigenvectors will be computed.
  Beginning symmetry block   2.   1 roots requested.
  1   1  0.5845421791D+00  0.1590620135D+02  0.0000000000D+00  0.4600629254D+00
  2   2  0.5272444583D+00  0.1434705110D+02  0.9944910353D+00  0.8928507092D-01
  3   3  0.5065780039D+00  0.1378468828D+02  0.9968171802D+00  0.2154542663D-01
  4   4  0.5055890128D+00  0.1375777647D+02  0.9998689839D+00  0.4220162722D-02
  L-O-C-K-I-N-G O-N R-O-O-T 
  5   5  0.5054781564D+00  0.1375475991D+02  0.9999965446D+00  0.1025767706D-02
  6   6  0.5054722391D+00  0.1375459890D+02  0.9999997752D+00  0.1804111840D-03
  7   7  0.5054724969D+00  0.1375460591D+02  0.9999999909D+00  0.4846877146D-04
  8   8  0.5054720387D+00  0.1375459344D+02  0.9999999995D+00  0.8861018434D-05
  9   9  0.5054720982D+00  0.1375459506D+02  0.1000000000D+01  0.2133789199D-05
 10  10  0.5054720908D+00  0.1375459486D+02  0.1000000000D+01  0.3983617893D-06
 11  11  0.5054720931D+00  0.1375459492D+02  0.1000000000D+01  0.6942655454D-07
 12  12  0.5054720930D+00  0.1375459492D+02  0.1000000000D+01  0.1188739157D-07
 13  13  0.5054720931D+00  0.1375459492D+02  0.1000000000D+01  0.2253321574D-08
 14  14  0.5054720931D+00  0.1375459492D+02  0.1000000000D+01  0.3711657383D-09
 15  15  0.5054720931D+00  0.1375459492D+02  0.1000000000D+01  0.7273700510D-10
  Converged eigenvalue:   0.505472093053319       a.u.
   Total EOMIP-CCSD electronic energy     -75.83338493872604 a.u.
          --------------------------------
             I    J    A       C(IJA)
          --------------------------------
              0    3    0    0.6977314233
              3    3   37    0.0371058941
              3    3   41   -0.0315738558
              3    3   42   -0.0275835382
              4    3   58   -0.0274448453
              3    3   38    0.0265248774
              2    3   14   -0.0236449898
              2    3    6   -0.0227960902
              4    3   55   -0.0219451545
              2    3    9   -0.0205083613
              1    3   10   -0.0159774251
              3    3   40   -0.0159263309
              4    3   62   -0.0148966502
              1    3    7   -0.0132433698
              2    3   10   -0.0128871655
          --------------------------------

  Eigenvector is saved on CCRE_1_1  

  VIP all done  ! 
 @CHECKOUT-I, Total execution time (CPU/WALL):        0.16/       0.11 seconds.
--executable xvip finished with status     0 in        0.13 seconds (walltime).
  The final electronic energy is       -75.833384938726041 a.u. 
  This computation required                           15.84 seconds (walltime).
 
Timing info
25.454u 4.216s 0:15.84 187.2% 0+0k 7832+580304io 75pf+0w
 
Scratch space info (BEFORE cleaning //scratch/mdavis)
 
Cleaning up ...
Filesystem      Size  Used Avail Use% Mounted on
/dev/sda9       785G  1.6G  744G   1% /scratch
 
Scratch space info (AFTER cleaning //scratch/mdavis)
Filesystem      Size  Used Avail Use% Mounted on
/dev/sda9       785G  1.4G  744G   1% /scratch
