 --invoking executable--
/home/qc/cfour_v2.1_intel_2017_eland2/bin/xjoda


   *************************************************************************
         <<<     CCCCCC     CCCCCC   |||     CCCCCC     CCCCCC   >>>
       <<<      CCC        CCC       |||    CCC        CCC         >>>
      <<<      CCC        CCC        |||   CCC        CCC            >>>
    <<<        CCC        CCC        |||   CCC        CCC              >>>
      <<<      CCC        CCC        |||   CCC        CCC            >>>
       <<<      CCC        CCC       |||    CCC        CCC         >>>
         <<<     CCCCCC     CCCCCC   |||     CCCCCC     CCCCCC   >>>
   *************************************************************************

     ****************************************************************
     * CFOUR Coupled-Cluster techniques for Computational Chemistry *
     ****************************************************************
 

   Department of Chemistry                Institut fuer Physikalische Chemie
   University of Florida                  Universitaet Mainz
   Gainesville, FL 32611, USA             D-55099 Mainz, Germany

   Department of Chemistry                Fakultaet fuer Chemie und Biowiss.
   Johns Hopkins University               Karlsruher Institut fuer Technologie
   Baltimore, MD 21218, USA               D-76131 Karlsruhe, Germany

   Department of Chemistry                Department of Physical Chemistry
   Southern Methodist University          Eotvos Lorand University
   Dallas, TX 75275, USA                  H-1053 Budapest, Hungary

 
                       Version 2.1
 
                     node5                                             
                     Fri 04 Nov 2022 09:27:04 AM CDT                   
                     integer*8 version is running
 
********************************************************************************
*                          Input from ZMAT file                                *
********************************************************************************
h2o AUG-PVTZ CC3                                                                
H        0.0000000000       -1.5261960125       -0.9653417770                   
O        0.0000000000        0.0000000000        0.1144193640                   
H        0.0000000000        1.5261960125       -0.9653417770                   
                                                                                
                                                                                
                                                                                
*CFOUR(CALC=CC3,BASIS=AUG-PVTZ,COORDINATES=CARTESIAN,UNITS=BOHR                 
CC_CONV=9                                                                       
LINEQ_CONV=12                                                                   
SCF_CONV=9                                                                      
ESTATE_CONV=10                                                                  
CHARGE=0                                                                        
MULTIPLICITY=1                                                                  
FROZEN_CORE=ON                                                                  
RELATIVISTIC=OFF                                                                
REFERENCE=RHF                                                                   
EXCITE=EOMIP                                                                    
ESTATE_SYM=0/1/0/0                                                              
MEM_UNIT=GB,MEMORY_SIZE=32)                                                     
                                                                                
H:APVTZ-X2C                                                                     
O:APVTZ-X2C                                                                     
H:APVTZ-X2C                                                                     
                                                                                
********************************************************************************
    -------------------------------------------------------------------
                    CFOUR Control Parameters 
    -------------------------------------------------------------------
        External           Internal           Value            Units
          Name               Name
    -------------------------------------------------------------------
       ABCDTYPE             IABCDT         STANDARD    [  0]    ***   
       ANHARMONIC           IANHAR         OFF         [  0]    ***   
       ANH_ALGORIT          IANALG         STANDARD    [  0]    ***   
       ANH_DERIVAT          IANDER         SECOND      [  1]    ***   
       ANH_MODE             ANHMOD         VIBRATION   [  0]    ***   
       ANH_STEPSIZ          ICUBST             50000          x 10-6  
       ANH_SYMMETR          IANHSM         ABELIAN     [  0]    ***   
       AO_LADDERS           IAOLAD         SINGLEPASS  [  1]    ***   
       AV_SCF               IAVSCF         OFF         [  0]    ***   
       BASIS                IBASIS         AUG-PVTZ    [ 34]    ***   
       BOTHVECTORS          BOTHVC         OFF         [  0]    ***   
       BOX_POTENT           IPIAB          OFF         [  0]    ***   
       BREIT                IBREIT         OFF         [  0]    ***   
       BRUCK_CONV           IBRTOL          10D-  4             ***   
       BRUECKNER            IBRKNR         OFF         [  0]    ***   
       BUFFERSIZE           IBUFFS              4096            ***   
       CACHE_RECS           ICHREC             10               ***   
       CALCLEVEL            ICLLVL         CC3         [ 32]    ***   
       CCORBOPT             ICCORB         OFF         [  0]  x 0.01  
       CC_CONV              ICCCNV          10D-  9             ***   
       CC_EXPORDER          ICCEOR              5               ***   
       CC_EXTRAPOL          ICCEXT         DIIS        [  1]    ***   
       CC_GUESS             ICCGES         MP2         [  0]    ***   
       CC_MAXCYC            ICCCYC            100              cycles 
       CC_PROGRAM           ICCPRO         VCC         [  0]    ***   
       CHARGE               ICHRGE              0               ***   
       CHOLESKY             ICHOLE         OFF         [  0]    ***   
       CIS_CONV             ICISTL              5               ***   
       COMM_SIZE            IPSIZE            ***               ***   
       CONSTANT             ICONST         OLD         [  1]    ***   
       CONTINUUM            ICONTU         NONE        [  0]    ***   
       CONTRACTION          ICNTYP         GENERAL     [  1]    ***   
       COORDINATES          ICOORD         CARTESIAN   [  1]    ***   
       CPHF_CONVER          ICPHFT          10D- 16             ***   
       CPHF_MAXCYC          ICPHFC             64              cycles 
       CUBIC                ICUBIC         OFF         [  0]    ***   
       CURVILINEAR          ICURVY         OFF         [  0]    ***   
       DBOC                 IDBOC          OFF         [  0]    ***   
       DCT                  IDCT           OFF         [  0]    ***   
       DERIV_LEV            IDRLVL         ZERO        [  0]    ***   
       DEVMEM_SIZE          IDVMEM         *********           MByte  
       DIAG_MRCC            IEOMST          10D-  0             ***   
       DIFF_TYPE            IDIFTY         RELAXED     [  0]    ***   
       DIRECT               IDIRCT         OFF         [  0]    ***   
       DROPMO               IDRPMO      NONE         
       ECP                  IECP           OFF         [  0]    ***   
       EIGENVECTOR          IVEC                1               ***   
       EL_ANHARM            IELANH         OFF         [  0]    ***   
       EOMFOLLOW            IEOMSR         ENERGY      [  0]    ***   
       EOMIP                IEOMIP         OFF         [  0]    ***   
       EOMLEVEL             HBARFM         SAME        [  0]    ***   
       EOM_MRCC             IMRCCE         NEW         [  1]    ***   
       EOM_NONIT            EOMNON         OFF         [  0]    ***   
       EOM_NSING            IEOMSI          10D-  0             ***   
       EOM_NSTATES          IMRCCD         DAVIDSON    [  0]    ***   
       EOM_NTRIP            IEOMTR          10D-  0             ***   
       EOM_ORDER            IEXORD         ENERGY      [  0]    ***   
       EOM_PROPSTA          IEOMST              0               ***   
       ESTATE_CONV          IEXTOL          10D- 10             ***   
       ESTATE_DIAG          IEXDIG         ITERATIVE   [  0]    ***   
       ESTATE_LOCK          IESLOC         ON          [  1]    ***   
       ESTATE_MAXC          IEXMXC             40               ***   
       ESTATE_PROP          IEXPRP         OFF         [  0]    ***   
       ESTATE_SYM           IEXSYM   0,  1,  0,  0,
       EVAL_HESS            IRECAL              0            # of cyc.
       EXCITATION           IEXCIT              0               ***   
       EXCITE               IEXCIT         EOMIP       [  4]    ***   
       EXTERN_POT           IEXPOT         OFF         [  0]    ***   
       FCGRADNEW            IFCGNW         OFF         [  0]    ***   
       FC_FIELD             IFINFC              0             x 10-6  
       FD_CALTYPE           IFDCAL         GRADONLY    [  0]    ***   
       FD_PROJECT           IFDPRJ         OFF         [  1]    ***   
       FD_STEPSIZE          IDISFD              0            10-4 bohr
       FD_USEGROUP          IFDGRP         FULL        [  0]    ***   
       FILE_RECSIZ          IFLREC              4096           words  
       FINITE_PERT          IFIPER              0             x 10-6  
       FIXGEOM              IFIXGM         OFF         [  0]    ***   
       FOCK                 IFOCK          AO          [  1]    ***   
       FREQ_ALGORI          IVIALG         STANDARD    [  0]    ***   
       FROZEN_CORE          IFROCO         ON          [  1]    ***   
       GAMMA_ABCD           IGABCD         STORE       [  0]    ***   
       GAMMA_ABCI           IGABCI         STORE       [  0]    ***   
       GENBAS_1             IGNBS1              0               ***   
       GENBAS_2             IGNBS2              0               ***   
       GENBAS_3             IGNBS3              0               ***   
       GENBAS_4             IGNBS4              0               ***   
       GEO_CONV             ICONTL              5              H/bohr 
       GEO_MAXCYC           IOPTCY             50               ***   
       GEO_MAXSTEP          IMXSTP            300            millibohr
       GEO_METHOD           INR            SINGLE_POINT[  5]    ***   
       GIAO                 IGIAO          OFF         [  1]    ***   
       GIMIC                IGIMIC         OFF         [  0]    ***   
       GRID                 IGRID          OFF         [  0]    ***   
       GRID_ALGO            IGALGO         SERIAL      [  0]    ***   
       GUESS                IGUESS         MOREAD      [  0]    ***   
       HBAR                 IHBAR          ON          [  1]    ***   
       HESS_TYPE            IHESTP         SCF         [  0]    ***   
       HF2_FILE             IHF2Fl         USE         [  1]    ***   
       HFSTABILITY          ISTABL         OFF         [  0]    ***   
       INCORE               INCORE         OFF         [  0]    ***   
       INPUT_MRCC           IMRCC          ON          [  1]    ***   
       INTEGRALS            INTTYP         VMOL        [  1]    ***   
       JODA_PRINT           IJPRNT              0               ***   
       KEYWORD_OUT          IDMPKW         NO          [  0]    ***   
       LINDEP_TOL           ILINDP              8               ***   
       LINEQ_CONV           IZTACN          10D- 12           cycles  
       LINEQ_EXPOR          ILMAXD              5               ***   
       LINEQ_MAXCY          ILMAXC            100               ***   
       LINEQ_TYPE           ILTYPE         DIIS        [  1]    ***   
       LOCK_ORBOCC          ILOCOC         OFF         [  0]    ***   
       MEMORY_SIZE          IMEMSZ         *********           words  
       MEM_UNIT             IMEMU          GB          [  3]    ***   
       MRCC                 IMRCCC         OFF         [  0]    ***   
       MULTIPLICTY          IMULTP              1               ***   
       NACOUPLING           IVCOUP         OFF         [  0]    ***   
       NEGEVAL              IDIE           ABORT       [  0]    ***   
       NEWNORM              INEWNO         OFF         [  0]    ***   
       NON-HF               INONHF         OFF         [  0]    ***   
       NTOP_TAMP            ITOPT2             15               ***   
       NUC_MODEL            INUCMO         POINT       [  0]    ***   
       OCCUPATION           IOCCU   ESTIMATED BY SCF 
       OPEN-SHELL           IOPEN          SPIN-ORBITAL[  0]    ***   
       OPTVIB               IOPTVB         OFF         [  0]    ***   
       ORBITALS             IORBTP         STANDARD    [  0]    ***   
       PARALLEL             IPARAL         ON          [  1]    ***   
       PARA_INT             IPINTS         ON          [  1]    ***   
       PARA_PRINT           IPPRIN              0               ***   
       PERT_ORB             IPTORB         STANDARD    [  0]    ***   
       POINTS               IGRDFD              0               ***   
       PRINT                IPRNT               0               ***   
       PROPS                IPROPS         OFF         [  0]    ***   
       PROP_INTEGR          IINTYP         INTERNAL    [  0]    ***   
       PSI                  IPSI           OFF         [  0]    ***   
       QC_ALG               IQCALG         FLM         [  0]    ***   
       QC_LINALG            IQCLIN         TRIDIAG     [  2]    ***   
       QC_MAXCYC            IQCMAX          10D-100           cycles  
       QC_MAXSCFCY          IQCMSC          10D- 15           cycles  
       QC_RTRUST            IQCRTR          10D-  0           x 10-3  
       QC_SKIPSCF           IQCSKI         OFF         [  0]    ***   
       QC_START             IQCSTA          10D-  1             ***   
       QRHFGUESS            IQGUES         OFF         [  0]    ***   
       QUARTIC              IQUART         OFF         [  0]    ***   
       RAMAN_INT            IRAMIN         OFF         [  0]    ***   
       RAMAN_ORB            IRAMRE         UNRELAXED   [  0]    ***   
       RDO                  IRDOFM         OFF         [  0]    ***   
       REDUCE_REPR          REDREP         Ir          [  0]    ***   
       REFERENCE            IREFNC         RHF         [  0]    ***   
       RELATIVIST           IRELAT         OFF         [  0]    ***   
       RELAX_DENS           IRDENS         OFF         [  0]    ***   
       RESET_FLAGS          IRESET         OFF         [  0]    ***   
       RESTART_CC           ICCRES         OFF         [  0]    ***   
       ROT_EVEC             ROTVEC              0               ***   
       SAVE_INTS            ISVINT         OFF         [  0]    ***   
       SCALE_ON             ISTCRT              0               ***   
       SCF_CONV             ISCFCV          10D-  9             ***   
       SCF_DAMPING          IDAMP               0             x 10-3  
       SCF_EXPORDE          IRPPOR              6               ***   
       SCF_EXPSTAR          IRPPLS              8               ***   
       SCF_EXTRAPO          IRPP           ON          [  1]    ***   
       SCF_MAXCYC           ISCFCY            150              cycles 
       SCF_NOSTOP           ISCFST         OFF         [  0]    ***   
       SCF_PRINT            ISCFPR              0               ***   
       SCF_PROG             ISCFPR         SCF         [  0]    ***   
       SD_FIELD             IFINSD              0             x 10-6  
       SOPERT               IPERSO         OFF         [  0]    ***   
       SPHERICAL            IDFGHI         ON          [  1]    ***   
       SPINORBIT            ISOCAL         OFF         [  0]    ***   
       SPINROTATIO          ISRCON         OFF         [  0]    ***   
       SPIN_FLIP            ISPFLP         OFF         [  0]    ***   
       SPIN_ORBIT           ISPORB         OFF         [  0]    ***   
       SPIN_SCAL            ISCSMP         OFF         [  0]    ***   
       STEEPSCALE           ISTPSC              1000          x 10-3  
       SUBGROUP             ISUBGP         DEFAULT     [  0]    ***   
       SUBGRPAXIS           ISBXYZ         X           [  0]    ***   
       SYMMETRY             ISYM           ON          [  0]    ***   
       SYM_CHECK            ISYMCK         OVERRIDE    [  1]    ***   
       T3_EXTRAPOL          IT3EXT         OFF         [  0]    ***   
       T4_EXTRAPOL          IT4EXP         OFF         [  0]    ***   
       TAMP_SUM             IEVERY              5               ***   
       TESTSUITE            ITESTS         OFF         [  0]    ***   
       THERMOCH             ITHERM         OFF         [  0]    ***   
       TOL_CHOLESK          ITOLCH          10D-  4             ***   
       TRANGRAD             IRESRM         OFF         [  0]    ***   
       TRANS_INV            ITRAIN         USE         [  0]    ***   
       TREAT_PERT           ITREAT         SIMULTANEOUS[  0]    ***   
       TRIP_ALGORI          ITRALG         NORMAL      [  0]    ***   
       UIJ_THRESHO          IUIJTH              1               ***   
       UNITS                IUNITS         BOHR        [  1]    ***   
       UNOS                 IUNOS          OFF         [  0]    ***   
       UPDATE_HESS          IHUPDT         ON          [  1]    ***   
       VIBPHASE             ISETPH         STANDARD    [  0]    ***   
       VIBRATION            IVIB           NO          [  0]    ***   
       VIB_ALGORIT          IGEALG         STANDARD    [  0]    ***   
       VNATORB              IVNORB         OFF         [  0]    ***   
       VTRAN                IVTRAN         FULL/PARTIAL[  0]    ***   
       XFIELD               IXEFLD              0             x 10-6  
       XFORM_TOL            IXFTOL          10D- 11             ***   
       YFIELD               IYEFLD              0             x 10-6  
       ZFIELD               IZEFLD              0             x 10-6  
       ZSCALE_EXP           IZEXPS         OFF         [  0]    ***   
    -------------------------------------------------------------------
  @GETXYZ-I,     3 atoms read from ZMAT.
   Rotational constants (in cm-1): 
          8.8763771190            12.8220865549            28.8449206825
   Rotational constants (in MHz): 
     266107.1287459396        384396.5383517855        864749.0883716177
********************************************************************************
   The full molecular point group is C2v .
   The largest Abelian subgroup of the full molecular point group is C2v .
   The computational point group is C2v .
********************************************************************************


 ----------------------------------------------------------------
         Coordinates used in calculation (QCOMP) 
 ----------------------------------------------------------------
 Z-matrix   Atomic            Coordinates (in bohr)
  Symbol    Number           X              Y              Z
 ----------------------------------------------------------------
     H         1         0.00000000    -1.52619601    -0.95891981
     O         8         0.00000000     0.00000000     0.12084133
     H         1         0.00000000     1.52619601    -0.95891981
 ----------------------------------------------------------------
 
   Interatomic distance matrix (Angstroms) 
 
                 H             O             H    
                [ 1]        [ 2]        [ 3]
  H    [ 1]     0.00000
  O    [ 2]     0.98931     0.00000
  H    [ 3]     1.61526     0.98931     0.00000
 rotcon2
   Rotational constants (in cm-1): 
          8.8763771190            28.8449206825            12.8220865549
   Rotational constants (in MHz): 
     266107.1287459396        864749.0883716177        384396.5383517855
  There is   1 frozen-core orbital.
  There are   92 basis functions.
 @GEOPT-W, Archive file not created for single-point calculation.
 @CHECKOUT-I, Total execution time (CPU/WALL):        0.12/       0.19 seconds.
--executable xjoda finished with status     0 in        0.22 seconds (walltime).
 --invoking executable--
/home/qc/cfour_v2.1_intel_2017_eland2/bin/xvmol
 SERIAL VERSION OF MOLECULE STARTED
********************************************************************************
                    INPUT FROM MOL FILE
********************************************************************************
INTGRL        1    0    1    0    0    0    0    0    0                         
         *** CFOUR Program System (Release V0.1) ***                            
h2o AUG-PVTZ CC3                                                                
    2    2 X  Y       0.10E-08              0    0                              
   9999.00      3.00                                                            
          1.00000000    1    3    1    1    1                                   
H #1   0.000000000000000  -1.526196012500000  -0.958919809498610                
    6    4                                                                      
   33.8700000000000       6.068000000000000E-003  0.000000000000000E+000        
  0.000000000000000E+000  0.000000000000000E+000                                
   5.09500000000000       4.530800000000000E-002  0.000000000000000E+000        
  0.000000000000000E+000  0.000000000000000E+000                                
   1.15900000000000       0.202822000000000       0.000000000000000E+000        
  0.000000000000000E+000  0.000000000000000E+000                                
  0.325800000000000       0.503903000000000        1.00000000000000             
  0.000000000000000E+000  0.000000000000000E+000                                
  0.102700000000000       0.383421000000000       0.000000000000000E+000        
   1.00000000000000       0.000000000000000E+000                                
  2.526000000000000E-002  0.000000000000000E+000  0.000000000000000E+000        
  0.000000000000000E+000   1.00000000000000                                     
    3    3                                                                      
   1.40700000000000        1.00000000000000       0.000000000000000E+000        
  0.000000000000000E+000                                                        
  0.388000000000000       0.000000000000000E+000   1.00000000000000             
  0.000000000000000E+000                                                        
  0.102000000000000       0.000000000000000E+000  0.000000000000000E+000        
   1.00000000000000                                                             
    2    2                                                                      
   1.05700000000000        1.00000000000000       0.000000000000000E+000        
  0.247000000000000       0.000000000000000E+000   1.00000000000000             
          8.00000000    1    4    1    1    1    1                              
O #2   0.000000000000000   0.000000000000000   0.120841331501390                
   11    5                                                                      
   15330.0000000000       5.080000000000000E-004 -1.150000000000000E-004        
  0.000000000000000E+000  0.000000000000000E+000  0.000000000000000E+000        
   2299.00000000000       3.929000000000000E-003 -8.950000000000000E-004        
  0.000000000000000E+000  0.000000000000000E+000  0.000000000000000E+000        
   522.400000000000       2.024300000000000E-002 -4.636000000000000E-003        
  0.000000000000000E+000  0.000000000000000E+000  0.000000000000000E+000        
   147.300000000000       7.918100000000000E-002 -1.872400000000000E-002        
  0.000000000000000E+000  0.000000000000000E+000  0.000000000000000E+000        
   47.5500000000000       0.230687000000000      -5.846300000000000E-002        
  0.000000000000000E+000  0.000000000000000E+000  0.000000000000000E+000        
   16.7600000000000       0.433118000000000      -0.136463000000000             
  0.000000000000000E+000  0.000000000000000E+000  0.000000000000000E+000        
   6.20700000000000       0.350260000000000      -0.175740000000000             
  0.000000000000000E+000  0.000000000000000E+000  0.000000000000000E+000        
   1.75200000000000       4.272800000000000E-002  0.160934000000000             
   1.00000000000000       0.000000000000000E+000  0.000000000000000E+000        
  0.688200000000000      -8.154000000000000E-003  0.603418000000000             
  0.000000000000000E+000  0.000000000000000E+000  0.000000000000000E+000        
  0.238400000000000       2.381000000000000E-003  0.378765000000000             
  0.000000000000000E+000   1.00000000000000       0.000000000000000E+000        
  7.376000000000001E-002  0.000000000000000E+000  0.000000000000000E+000        
  0.000000000000000E+000  0.000000000000000E+000   1.00000000000000             
    6    4                                                                      
   34.4600000000000       1.592800000000000E-002  0.000000000000000E+000        
  0.000000000000000E+000  0.000000000000000E+000                                
   7.74900000000000       9.974000000000000E-002  0.000000000000000E+000        
  0.000000000000000E+000  0.000000000000000E+000                                
   2.28000000000000       0.310492000000000       0.000000000000000E+000        
  0.000000000000000E+000  0.000000000000000E+000                                
  0.715600000000000       0.491026000000000        1.00000000000000             
  0.000000000000000E+000  0.000000000000000E+000                                
  0.214000000000000       0.336337000000000       0.000000000000000E+000        
   1.00000000000000       0.000000000000000E+000                                
  5.974000000000000E-002  0.000000000000000E+000  0.000000000000000E+000        
  0.000000000000000E+000   1.00000000000000                                     
    3    3                                                                      
   2.31400000000000        1.00000000000000       0.000000000000000E+000        
  0.000000000000000E+000                                                        
  0.645000000000000       0.000000000000000E+000   1.00000000000000             
  0.000000000000000E+000                                                        
  0.214000000000000       0.000000000000000E+000  0.000000000000000E+000        
   1.00000000000000                                                             
    2    2                                                                      
   1.42800000000000        1.00000000000000       0.000000000000000E+000        
  0.500000000000000       0.000000000000000E+000   1.00000000000000             
FINISH                                                                          
 
********************************************************************************
 ONE- AND TWO-ELECTRON INTEGRALS OVER SYMMETRY-ADAPTED AOS ARE CALCULATED.

  SPHERICAL HARMONICS ARE USED.
  
  INTEGRALS LESS THAN  0.10E-13 ARE NEGLECTED.

  NUCLEAR REPULSION ENERGY :    8.8858931141 A.U.
  @MOLECU-I, ONE ELECTRON INTEGRALS (CPU/WALL):        0.02/       0.02 SECONDS.
  @TWOEL-I,     262923 INTEGRALS OF SYMMETRY TYPE  I I I I
  @TWOEL-I,     865293 INTEGRALS OF SYMMETRY TYPE  I J I J
  @TWOEL-I,     466389 INTEGRALS OF SYMMETRY TYPE  I I J J
  @TWOEL-I,     575256 INTEGRALS OF SYMMETRY TYPE  I J K L
  @TWOEL-I, TOTAL NUMBER OF 2-E INTEGRALS    2169861.
  @MOLECU-I, TWO ELECTRON INTEGRALS (CPU/WALL):        0.90/       0.90 SECONDS.
 @CHECKOUT-I, Total execution time (CPU/WALL):        0.92/       0.92 seconds.

OMP_NUM_THREADS not specified; defaulting to 1
Running with 1 threads/proc

--executable xvmol finished with status     0 in        1.01 seconds (walltime).
 --invoking executable--
/home/qc/cfour_v2.1_intel_2017_eland2/bin/xvmol2ja
 @GETMEM-I,  Allocated   30517 MB of main memory.
 @CHECKOUT-I, Total execution time (CPU/WALL):        0.02/       0.01 seconds.
--executable xvmol2ja finished with status     0 in        0.04 seconds (walltime).
 --invoking executable--
/home/qc/cfour_v2.1_intel_2017_eland2/bin/xvscf
  There are   92 functions in the AO basis.

  There are 4 irreducible representations.

       Irrep        # of functions
         1                 35
         2                 18
         3                 27
         4                 12


  Parameters for SCF calculation: 
        SCF reference function:  RHF  
  Maximum number of iterations:  150
     Full symmetry point group: C2v 
     Computational point group: C2v 
        Initial density matrix: MOREAD                 
     SCF convergence tolerance: 10**(- 9)
  DIIS convergence acceleration:  ON
          Latest start for DIIS:   8
                     DIIS order:   6

  Memory information:     401180 words required.
  Fock matrices are constructed from AO integral file.
 @GETMEM-I,  Allocated       3 MB of main memory.
  Initialization and symmetry analysis required      0.001 seconds.

  @INITGES-I, Occupancies from core Hamiltonian:

          Alpha population by irrep:   3    1    1    0
           Beta population by irrep:   3    1    1    0


 total no. of electrons in initial guess :  0.000000000000000E+000
  --------------------------------------------------------------------
  Iteration         Total Energy            Largest Density Difference
  --------------------------------------------------------------------
       0             8.885893114141554              0.0000000000D+00
   current occupation vector 
     3  1  1  0
     3  1  1  0
       1           -61.262723663727698              0.1229967133D+02
   current occupation vector 
     3  1  1  0
     3  1  1  0
       2           -63.684915000123553              0.2985700286D+02
   current occupation vector 
     3  0  2  0
     3  0  2  0
       3           -70.823138691992085              0.2985721221D+02
   current occupation vector 
     3  1  1  0
     3  1  1  0
       4           -67.828920627072449              0.2553045805D+02
   current occupation vector 
     3  0  2  0
     3  0  2  0
       5           -72.198022116066127              0.2553000648D+02
   current occupation vector 
     3  1  1  0
     3  1  1  0
       6           -68.803318640155950              0.2393191988D+02
   current occupation vector 
     3  0  2  0
     3  0  2  0
       7           -72.570346187857439              0.2393206537D+02
   current occupation vector 
     3  1  1  0
     3  1  1  0
       8           -69.067859194282562              0.2353339609D+02
   current occupation vector 
     3  0  2  0
     3  0  2  0
       9           -75.777308862902856              0.2353432493D+02
   current occupation vector 
     3  1  1  0
     3  1  1  0
      10           -76.046432899586549              0.5149632843D+00
   current occupation vector 
     3  1  1  0
     3  1  1  0
      11           -76.055909407112566              0.8402773798D-01
   current occupation vector 
     3  1  1  0
     3  1  1  0
      12           -76.056027669962774              0.1123485853D-01
   current occupation vector 
     3  1  1  0
     3  1  1  0
      13           -76.056038205185388              0.3709184702D-02
   current occupation vector 
     3  1  1  0
     3  1  1  0
      14           -76.056039949473060              0.2210473842D-02
   current occupation vector 
     3  1  1  0
     3  1  1  0
      15           -76.056039982062572              0.3441261971D-03
   current occupation vector 
     3  1  1  0
     3  1  1  0
      16           -76.056039982601106              0.2800991380D-04
   current occupation vector 
     3  1  1  0
     3  1  1  0
      17           -76.056039982664359              0.1445057454D-04
   current occupation vector 
     3  1  1  0
     3  1  1  0
      18           -76.056039982666604              0.2765831468D-05
   current occupation vector 
     3  1  1  0
     3  1  1  0
      19           -76.056039982666533              0.3115231959D-06
   current occupation vector 
     3  1  1  0
     3  1  1  0
      20           -76.056039982666448              0.3290842657D-07
   current occupation vector 
     3  1  1  0
     3  1  1  0
      21           -76.056039982666377              0.7426199294D-08
   current occupation vector 
     3  1  1  0
     3  1  1  0

  SCF has converged.

 Density matrix saved to file den.dat
 total electron number:   10.0000000000000     
     E(SCF)=       -76.056039982666135              0.8895742754D-09

  Eigenvector printing suppressed.

 @PUTMOS-I, Writing converged MOs to NEWMOS. 
 @PUTMOS-I, Symmetry   1 Full Blocks  8 Partial Blocksize   3
 @PUTMOS-I, Symmetry   2 Full Blocks  4 Partial Blocksize   2
 @PUTMOS-I, Symmetry   3 Full Blocks  6 Partial Blocksize   3
 @PUTMOS-I, Symmetry   4 Full Blocks  3 Partial Blocksize   0
 @PUTFOCK-I, Writing converged Fock matrix to NEWFOCK. 
 @PUTFOCK-I, Symmetry   1 Full Blocks  8 Partial Blocksize   3
 @PUTFOCK-I, Symmetry   2 Full Blocks  4 Partial Blocksize   2
 @PUTFOCK-I, Symmetry   3 Full Blocks  6 Partial Blocksize   3
 @PUTFOCK-I, Symmetry   4 Full Blocks  3 Partial Blocksize   0


 
  ORBITAL EIGENVALUES (ALPHA)  (1H = 27.2113834 eV)

       MO #        E(hartree)               E(eV)           FULLSYM    COMPSYM
       ----   --------------------   --------------------   -------   ---------
    1     1         -20.5703644263        -559.7480730829      A1        A1 (1)
    2     2          -1.3343922179         -36.3106582467      A1        A1 (1)
    3    54          -0.7092644761         -19.3000675920      B2        B2 (3)
    4     3          -0.5693776099         -15.4935524413      A1        A1 (1)
    5    36          -0.5062417919         -13.7755394926      B1        B1 (2)
  +++++++++++++++++++++++++++++++++++++++++++++++++++++++++++++++++++++++++++++
    6     4           0.0293043442           0.7974117451      A1        A1 (1)
    7    55           0.0472387515           1.2854317796      B2        B2 (3)
    8     5           0.1364549503           3.7131279698      A1        A1 (1)
    9    37           0.1593340340           4.3356994868      B1        B1 (2)
   10     6           0.1726902935           4.6991417872      A1        A1 (1)
   11    56           0.1817586593           4.9459045658      B2        B2 (3)
   12    57           0.2263651645           6.1597092805      B2        B2 (3)
   13     7           0.2429082219           6.6098687574      A1        A1 (1)
   14    81           0.2631358461           7.1602903950      A2        A2 (4)
   15    38           0.3043370166           8.2814312423      B1        B1 (2)
   16     8           0.3127510300           8.5103881855      A1        A1 (1)
   17    58           0.3642452858           9.9116181227      B2        B2 (3)
   18     9           0.4307225486          11.7205564100      A1        A1 (1)
   19    59           0.4608970782          12.5416471025      B2        B2 (3)
   20    60           0.6011267739          16.3574911174      B2        B2 (3)
   21    10           0.6497702829          17.6811482888      A1        A1 (1)
   22    11           0.7110504862          19.3486673980      A1        A1 (1)
   23    82           0.7191078793          19.5679202101      A2        A2 (4)
   24    39           0.7319494329          19.9173566485      B1        B1 (2)
   25    12           0.8164046019          22.2154986325      A1        A1 (1)
   26    40           0.8400141582          22.8579473211      B1        B1 (2)
   27    13           0.8963423703          24.3907158961      A1        A1 (1)
   28    61           0.9057311194          24.6461967475      B2        B2 (3)
   29    83           0.9158451127          24.9214124966      A2        A2 (4)
   30    62           0.9261999407          25.2031816916      B2        B2 (3)
   31    41           0.9295004946          25.2929943304      B1        B1 (2)
   32    14           0.9703914193          26.4056929583      A1        A1 (1)
   33    15           1.0116747180          27.5290686277      A1        A1 (1)
   34    63           1.0348598931          28.1599693156      B2        B2 (3)
   35    42           1.0804367227          29.4001779017      B1        B1 (2)
   36    64           1.1080170708          30.1506773271      B2        B2 (3)
   37    84           1.1629964447          31.6467421499      A2        A2 (4)
   38    16           1.1638066265          31.6687883170      A1        A1 (1)
   39    65           1.2713330007          34.5947297109      B2        B2 (3)
   40    85           1.5056014401          40.9694980353      A2        A2 (4)
   41    17           1.5783229396          42.9483506373      A1        A1 (1)
   42    43           1.5791810755          42.9717017024      B1        B1 (2)
   43    66           1.7477539078          47.5588016728      B2        B2 (3)
   44    18           1.8107087588          49.2718902607      A1        A1 (1)
   45    67           1.9667321572          53.5175027750      B2        B2 (3)
   46    19           2.0828223014          56.6764761985      A1        A1 (1)
   47    44           2.2545100724          61.3483379589      B1        B1 (2)
   48    86           2.3107656773          62.8791307913      A2        A2 (4)
   49    20           2.3238502723          63.2351807231      A1        A1 (1)
   50    21           2.4016334466          65.3517685017      A1        A1 (1)
   51    45           2.4032500197          65.3957576914      B1        B1 (2)
   52    68           2.4385978914          66.3576221807      B2        B2 (3)
   53    22           2.4826995352          67.5576889187      A1        A1 (1)
   54    69           2.7120662126          73.7990735161      B2        B2 (3)
   55    46           2.7123908727          73.8079079680      B1        B1 (2)
   56    23           2.7296579476          74.2777689640      A1        A1 (1)
   57    70           2.8614269075          77.8633846522      B2        B2 (3)
   58    87           2.8642347676          77.9397904080      A2        A2 (4)
   59    71           3.5842163117          97.5314842468      B2        B2 (3)
   60    24           3.7261705802         101.3942562706      A1        A1 (1)
   61    88           3.9814821713         108.3416378638      A2        A2 (4)
   62    47           4.0539005097         110.3122410337      B1        B1 (2)
   63    72           4.1823822925         113.8084080869      B2        B2 (3)
   64    25           4.1843651291         113.8623638130      A1        A1 (1)
   65    48           4.3135901799         117.3787562152      B1        B1 (2)
   66    89           4.3694001623         118.8974230441      A2        A2 (4)
   67    49           4.3748305274         119.0451907909      B1        B1 (2)
   68    26           4.4530061980         121.1724589369      A1        A1 (1)
   69    73           4.4622128340         121.4229842395      B2        B2 (3)
   70    27           4.6531334675         126.6181987952      A1        A1 (1)
   71    74           4.7176567775         128.3739673220      B2        B2 (3)
   72    75           5.0366325558         137.0537395221      B2        B2 (3)
   73    90           5.0918271369         138.5556604294      A2        A2 (4)
   74    28           5.2025972545         141.5698685683      A1        A1 (1)
   75    76           5.2643424246         143.2500400636      B2        B2 (3)
   76    50           5.4087951880         147.1807995936      B1        B1 (2)
   77    29           5.6707386367         154.3086432043      A1        A1 (1)
   78    30           6.0690721938         165.1478503483      A1        A1 (1)
   79    77           6.5506485948         178.2522104317      B2        B2 (3)
   80    51           6.6966430167         182.2249206206      B1        B1 (2)
   81    31           6.7987036480         185.0021315894      A1        A1 (1)
   82    52           7.1134418627         193.5665938188      B1        B1 (2)
   83    91           7.2213424556         196.5027182232      A2        A2 (4)
   84    53           7.2238477389         196.5708904476      B1        B1 (2)
   85    32           7.2777016427         198.0363296705      A1        A1 (1)
   86    78           7.3262127259         199.3563833535      B2        B2 (3)
   87    92           7.3639723795         200.3838757669      A2        A2 (4)
   88    33           7.4624964508         203.0648520448      A1        A1 (1)
   89    79           7.7911533756         212.0080616323      B2        B2 (3)
   90    34           7.9079446141         215.1861128015      A1        A1 (1)
   91    80           8.6063773449         234.1914336167      B2        B2 (3)
   92    35          14.9238314118         406.0980983428      A1        A1 (1)


  VSCF finished.

 @CHECKOUT-I, Total execution time (CPU/WALL):        0.82/       0.55 seconds.
--executable xvscf finished with status     0 in        0.58 seconds (walltime).
 --invoking executable--
/home/qc/cfour_v2.1_intel_2017_eland2/bin/xvtran
 @GETMEM-I,  Allocated   30517 MB of main memory.
  Full RHF integral transformation
  The following   1 MOs will be dropped:
    1
  There are  91 active molecular orbitals.
  Transformation of IIII integrals :
  1 pass through the AO integral file was required.
      262923 AO integrals were read.
      266728 MO integrals were written to HF2.
  Transformation of IIJJ integrals :
  1 pass through the AO integral file was required.
      466389 AO integrals were read.
      480525 MO integrals were written to HF2.
  Transformation of IJIJ integrals :
  1 pass through the AO integral file was required.
      865293 AO integrals were read.
      887262 MO integrals were written to HF2.
  Transformation of IJKL integrals :
  1 pass through the AO integral file was required.
      575256 AO integrals were read.
      594864 MO integrals were written to HF2.
  Summary of active molecular orbitals: 
------------------------------------------------------------------------
 
  Index      Eigenvalue    Symmetry    Index      Eigenvalue    Symmetry
------------------------------------------------------------------------
     1        -1.3343922        1        47         4.0539005        2
     2        -0.5693776        1        48         4.3135902        2
     3        -0.5062418        2        49         4.3748305        2
     4        -0.7092645        3        50         5.4087952        2
     5         0.0293043        1        51         6.6966430        2
     6         0.1364550        1        52         7.1134419        2
     7         0.1726903        1        53         7.2238477        2
     8         0.2429082        1        54         0.0472388        3
     9         0.3127510        1        55         0.1817587        3
    10         0.4307225        1        56         0.2263652        3
    11         0.6497703        1        57         0.3642453        3
    12         0.7110505        1        58         0.4608971        3
    13         0.8164046        1        59         0.6011268        3
    14         0.8963424        1        60         0.9057311        3
    15         0.9703914        1        61         0.9261999        3
    16         1.0116747        1        62         1.0348599        3
    17         1.1638066        1        63         1.1080171        3
    18         1.5783229        1        64         1.2713330        3
    19         1.8107088        1        65         1.7477539        3
    20         2.0828223        1        66         1.9667322        3
    21         2.3238503        1        67         2.4385979        3
    22         2.4016334        1        68         2.7120662        3
    23         2.4826995        1        69         2.8614269        3
    24         2.7296579        1        70         3.5842163        3
    25         3.7261706        1        71         4.1823823        3
    26         4.1843651        1        72         4.4622128        3
    27         4.4530062        1        73         4.7176568        3
    28         4.6531335        1        74         5.0366326        3
    29         5.2025973        1        75         5.2643424        3
    30         5.6707386        1        76         6.5506486        3
    31         6.0690722        1        77         7.3262127        3
    32         6.7987036        1        78         7.7911534        3
    33         7.2777016        1        79         8.6063773        3
    34         7.4624965        1        80         0.2631358        4
    35         7.9079446        1        81         0.7191079        4
    36        14.9238314        1        82         0.9158451        4
    37         0.1593340        2        83         1.1629964        4
    38         0.3043370        2        84         1.5056014        4
    39         0.7319494        2        85         2.3107657        4
    40         0.8400142        2        86         2.8642348        4
    41         0.9295005        2        87         3.9814822        4
    42         1.0804367        2        88         4.3694002        4
    43         1.5791811        2        89         5.0918271        4
    44         2.2545101        2        90         7.2213425        4
    45         2.4032500        2        91         7.3639724        4
    46         2.7123909        2
------------------------------------------------------------------------
  -1.33439221788031      -0.569377609862398      -0.506241791903773     
 -0.709264476131578       2.930434419161550E-002  0.136454950311676     
  0.172690293549836       0.242908221908757       0.312751029980347     
  0.430722548638728       0.649770282859371       0.711050486246467     
  0.816404601924280       0.896342370305650       0.970391419289018     
   1.01167471800399        1.16380662649359        1.57832293955871     
   1.81070875877217        2.08282230143640        2.32385027227503     
   2.40163344659881        2.48269953517557        2.72965794763695     
   3.72617058016094        4.18436512907958        4.45300619801929     
   4.65313346748770        5.20259725451083        5.67073863669424     
   6.06907219381915        6.79870364802562        7.27770164270534     
   7.46249645083447        7.90794461414482        14.9238314117764     
  0.159334033962770       0.304337016629597       0.731949432917379     
  0.840014158234326       0.929500494649953        1.08043672273295     
   1.57918107546219        2.25451007238625        2.40325001967401     
   2.71239087270988        4.05390050965500        4.31359017987951     
   4.37483052739384        5.40879518803072        6.69664301671073     
   7.11344186267245        7.22384773894404       4.723875154475371E-002
  0.181758659347879       0.226365164531727       0.364245285768841     
  0.460897078186930       0.601126773929109       0.905731119407422     
  0.926199940704813        1.03485989306916        1.10801707079254     
   1.27133300069204        1.74775390775466        1.96673215721082     
   2.43859789137897        2.71206621255828        2.86142690754324     
   3.58421631172213        4.18238229251211        4.46221283404076     
   4.71765677749261        5.03663255584924        5.26434242456226     
   6.55064859479641        7.32621272586702        7.79115337562440     
   8.60637734488375       0.263135846117915       0.719107879317094     
  0.915845112697135        1.16299644471148        1.50560144014085     
   2.31076567725440        2.86423476757070        3.98148217131185     
   4.36940016228834        5.09182713692550        7.22134245564382     
   7.36397237954922     
 @CHECKOUT-I, Total execution time (CPU/WALL):        1.04/       0.56 seconds.
--executable xvtran finished with status     0 in        0.59 seconds (walltime).
 --invoking executable--
/home/qc/cfour_v2.1_intel_2017_eland2/bin/xintprc
 @GETMEM-I,  Allocated   30517 MB of main memory.
  @GMOIAA-I, Processing MO integrals for spin case AA.
  @GMOIAA-I, Generation of integral list completed.
                      TYPE                NUMBER
                      ----               --------
                      PPPP               1862118
                      PPPH                340336
                      PPHH                 15793
                      PHPH                 10160
                      PHHH                   950
                      HHHH                    22

                     TOTAL               2229379

  @FORMT2-I, Second-order MP correlation energies:
            ------------------------------------------------
            E(SCF)                  =    -76.056039982666 a.u.
            E2(AA)                  =     -0.032823621439 a.u.
            E2(AB)                  =     -0.204955690203 a.u.
            E2(TOT)                 =     -0.270602933081 a.u.
            Total MP2 energy        =    -76.326642915747 a.u.
            ------------------------------------------------
   Largest T2 amplitudes for spin case AB:
       _       _                 _       _                 _       _
   i   j   a   b             i   j   a   b             i   j   a   b
-----------------------------------------------------------------------------
[  4   4  58  58]-0.02072 [  2   2  14  14]-0.01929 [  3   3  42  42]-0.01582
[  3   3  41  41]-0.01450 [  4   2  58  14]-0.01386 [  2   4  14  58]-0.01386
[  4   4  62  58]-0.01358 [  4   4  58  62]-0.01358 [  3   3  42  41]-0.01311
[  3   3  41  42]-0.01311 [  3   2  41  14]-0.01287 [  2   3  14  41]-0.01287
[  4   4  59  59]-0.01277 [  4   4  58  55]-0.01255 [  4   4  55  58]-0.01255
-----------------------------------------------------------------------------
   Norm of T2AB vector (    31238 symmetry allowed elements):  0.2209212611.
-----------------------------------------------------------------------------
 @CHECKOUT-I, Total execution time (CPU/WALL):        0.63/       0.42 seconds.
--executable xintprc finished with status     0 in        0.46 seconds (walltime).
  calling xvcc 
 --invoking executable--
/home/qc/cfour_v2.1_intel_2017_eland2/bin/xvcc
 @GETMEM-I,  Allocated   30517 MB of main memory.
   CC3 energy will be calculated.
   The total correlation energy is -0.270602933081 a.u.
   The total correlation energy is -0.278388216291 a.u.
  Convergence information after     1 iterations: 
  Largest element of residual vector :  0.10031282E-01.
  Largest element of DIIS residual   :  0.10031282E-01.
   The total correlation energy is -0.283079292290 a.u.
  Convergence information after     2 iterations: 
  Largest element of residual vector :  0.15629207E-02.
  Largest element of DIIS residual   : -0.17437929E-02.
   The total correlation energy is -0.283969278354 a.u.
  Convergence information after     3 iterations: 
  Largest element of residual vector :  0.17873710E-02.
  Largest element of DIIS residual   :  0.11252945E-02.
   The total correlation energy is -0.284442831930 a.u.
  Convergence information after     4 iterations: 
  Largest element of residual vector :  0.25614011E-03.
  Largest element of DIIS residual   : -0.13557667E-03.
   The total correlation energy is -0.284477719930 a.u.
  Convergence information after     5 iterations: 
  Largest element of residual vector :  0.14509424E-03.
  Largest element of DIIS residual   :  0.67382308E-04.
   The total correlation energy is -0.284480863541 a.u.
  Convergence information after     6 iterations: 
  Largest element of residual vector :  0.32357365E-04.
  Largest element of DIIS residual   :  0.23457020E-04.
   The total correlation energy is -0.284480160550 a.u.
  Convergence information after     7 iterations: 
  Largest element of residual vector :  0.17029475E-04.
  Largest element of DIIS residual   :  0.98933953E-05.
   The total correlation energy is -0.284480090727 a.u.
  Convergence information after     8 iterations: 
  Largest element of residual vector :  0.48478717E-05.
  Largest element of DIIS residual   :  0.26347838E-05.
   The total correlation energy is -0.284480312926 a.u.
  Convergence information after     9 iterations: 
  Largest element of residual vector :  0.17828856E-05.
  Largest element of DIIS residual   : -0.12988398E-05.
   The total correlation energy is -0.284480340495 a.u.
  Convergence information after    10 iterations: 
  Largest element of residual vector :  0.58776176E-06.
  Largest element of DIIS residual   :  0.35134322E-06.
   The total correlation energy is -0.284480353740 a.u.
  Convergence information after    11 iterations: 
  Largest element of residual vector : -0.19522384E-06.
  Largest element of DIIS residual   : -0.88042187E-07.
   The total correlation energy is -0.284480356346 a.u.
  Convergence information after    12 iterations: 
  Largest element of residual vector :  0.56982545E-07.
  Largest element of DIIS residual   :  0.25298550E-07.
   The total correlation energy is -0.284480356969 a.u.
  Convergence information after    13 iterations: 
  Largest element of residual vector :  0.10863211E-07.
  Largest element of DIIS residual   :  0.76112565E-08.
   The total correlation energy is -0.284480357332 a.u.
  Convergence information after    14 iterations: 
  Largest element of residual vector :  0.67472249E-08.
  Largest element of DIIS residual   :  0.33196215E-08.
   The total correlation energy is -0.284480357557 a.u.
  Convergence information after    15 iterations: 
  Largest element of residual vector :  0.21965873E-08.
  Largest element of DIIS residual   :  0.12653872E-08.
   The total correlation energy is -0.284480357602 a.u.
  Convergence information after    16 iterations: 
  Largest element of residual vector :  0.91166361E-09.
  Largest element of DIIS residual   :  0.29552970E-09.
  Amplitude equations converged in    16iterations.
   The total correlation energy is -0.284480357610 a.u.
   The CC iterations have converged.

   Largest T1 amplitudes for spin case AA:
   i       a                 i       a                 i       a    
-----------------------------------------------------------------------------
[  3      37    ] 0.01486 [  3      38    ]-0.01248 [  2       6    ] 0.00870
[  2       9    ] 0.00780 [  4      66    ]-0.00527 [  3      47    ]-0.00390
[  2       5    ] 0.00375 [  3      40    ] 0.00370 [  4      62    ]-0.00336
[  4      73    ]-0.00334 [  2      20    ]-0.00328 [  2      28    ]-0.00328
[  3      41    ] 0.00286 [  1      14    ]-0.00270 [  2      13    ] 0.00262
-----------------------------------------------------------------------------
   Norm of T1AA vector (      107 symmetry allowed elements):  0.0276576947.
-----------------------------------------------------------------------------
   Largest T2 amplitudes for spin case AB:
       _       _                 _       _                 _       _
   i   j   a   b             i   j   a   b             i   j   a   b
-----------------------------------------------------------------------------
[  4   4  58  58]-0.02379 [  2   2  14  14]-0.02112 [  3   3  42  42]-0.01676
[  4   4  62  58]-0.01567 [  4   4  58  62]-0.01567 [  3   3  41  41]-0.01553
[  4   4  59  59]-0.01513 [  3   3  37  37]-0.01445 [  2   2  59  59]-0.01442
[  3   3  42  41]-0.01432 [  3   3  41  42]-0.01432 [  4   4  58  55]-0.01410
[  4   4  55  58]-0.01410 [  4   2  58  14]-0.01392 [  2   4  14  58]-0.01392
-----------------------------------------------------------------------------
   Norm of T2AB vector (    31238 symmetry allowed elements):  0.2482022052.
-----------------------------------------------------------------------------
       Summary of iterative solution of CC equations 
      -----------------------------------------------------------
                       Correlation           Total
       Iteration         Energy              Energy
      -----------------------------------------------------------
            0        -0.270602933081     -76.326642915747  DIIS 
            1        -0.278388216291     -76.334428198957  DIIS 
            2        -0.283079292290     -76.339119274956  DIIS 
            3        -0.283969278354     -76.340009261020  DIIS 
            4        -0.284442831930     -76.340482814596  DIIS 
            5        -0.284477719930     -76.340517702596  DIIS 
            6        -0.284480863541     -76.340520846207  DIIS 
            7        -0.284480160550     -76.340520143216  DIIS 
            8        -0.284480090727     -76.340520073393  DIIS 
            9        -0.284480312926     -76.340520295592  DIIS 
           10        -0.284480340495     -76.340520323161  DIIS 
           11        -0.284480353740     -76.340520336406  DIIS 
           12        -0.284480356346     -76.340520339012  DIIS 
           13        -0.284480356969     -76.340520339635  DIIS 
           14        -0.284480357332     -76.340520339999  DIIS 
           15        -0.284480357557     -76.340520340223  DIIS 
           16        -0.284480357610     -76.340520340276  DIIS 
      -----------------------------------------------------------
      A miracle has come to pass. The CC iterations have converged.
      The reference energy is       -76.05603998266614 a.u.
      The correlation energy is      -0.28448035760974 a.u.
      The total energy is           -76.34052034027587 a.u.
 @CHECKOUT-I, Total execution time (CPU/WALL):       29.07/      14.54 seconds.
--executable xvcc finished with status     0 in       14.58 seconds (walltime).
 --invoking executable--
/home/qc/cfour_v2.1_intel_2017_eland2/bin/xlambda
 @GETMEM-I,  Allocated   30517 MB of main memory.
 Hbar is calculated for a CCSD wave function.
 Calculation of Hbar completed.
 @CHECKOUT-I, Total execution time (CPU/WALL):        0.50/       0.27 seconds.
--executable xlambda finished with status     0 in        0.30 seconds (walltime).
 --invoking executable--
/home/qc/cfour_v2.1_intel_2017_eland2/bin/xvip
 @GETMEM-I,  Allocated   30517 MB of main memory.
 IPs are calculated using the EOMIP-CCSD method.
  Summary of active alpha molecular orbitals:
------------------------------------------------------------------------------
Orbital Symm. Eigenvalue  <xx>     <yy>     <zz>     <xy>     <xz>     <yz>
------------------------------------------------------------------------------
    1     1      -1.3344   0.000    0.000    0.000    0.000    0.000    0.000
    2     1      -0.5694   0.000    0.000    0.000    0.000    0.000    0.000
    3     2      -0.5062   0.000    0.000    0.000    0.000    0.000    0.000
    4     3      -0.7093   0.000    0.000    0.000    0.000    0.000    0.000
    5     1       0.0293   0.000    0.000    0.000    0.000    0.000    0.000
    6     1       0.1365   0.000    0.000    0.000    0.000    0.000    0.000
    7     1       0.1727   0.000    0.000    0.000    0.000    0.000    0.000
    8     1       0.2429   0.000    0.000    0.000    0.000    0.000    0.000
    9     1       0.3128   0.000    0.000    0.000    0.000    0.000    0.000
   10     1       0.4307   0.000    0.000    0.000    0.000    0.000    0.000
   11     1       0.6498   0.000    0.000    0.000    0.000    0.000    0.000
   12     1       0.7111   0.000    0.000    0.000    0.000    0.000    0.000
   13     1       0.8164   0.000    0.000    0.000    0.000    0.000    0.000
   14     1       0.8963   0.000    0.000    0.000    0.000    0.000    0.000
   15     1       0.9704   0.000    0.000    0.000    0.000    0.000    0.000
   16     1       1.0117   0.000    0.000    0.000    0.000    0.000    0.000
   17     1       1.1638   0.000    0.000    0.000    0.000    0.000    0.000
   18     1       1.5783   0.000    0.000    0.000    0.000    0.000    0.000
   19     1       1.8107   0.000    0.000    0.000    0.000    0.000    0.000
   20     1       2.0828   0.000    0.000    0.000    0.000    0.000    0.000
   21     1       2.3239   0.000    0.000    0.000    0.000    0.000    0.000
   22     1       2.4016   0.000    0.000    0.000    0.000    0.000    0.000
   23     1       2.4827   0.000    0.000    0.000    0.000    0.000    0.000
   24     1       2.7297   0.000    0.000    0.000    0.000    0.000    0.000
   25     1       3.7262   0.000    0.000    0.000    0.000    0.000    0.000
   26     1       4.1844   0.000    0.000    0.000    0.000    0.000    0.000
   27     1       4.4530   0.000    0.000    0.000    0.000    0.000    0.000
   28     1       4.6531   0.000    0.000    0.000    0.000    0.000    0.000
   29     1       5.2026   0.000    0.000    0.000    0.000    0.000    0.000
   30     1       5.6707   0.000    0.000    0.000    0.000    0.000    0.000
   31     1       6.0691   0.000    0.000    0.000    0.000    0.000    0.000
   32     1       6.7987   0.000    0.000    0.000    0.000    0.000    0.000
   33     1       7.2777   0.000    0.000    0.000    0.000    0.000    0.000
   34     1       7.4625   0.000    0.000    0.000    0.000    0.000    0.000
   35     1       7.9079   0.000    0.000    0.000    0.000    0.000    0.000
   36     1      14.9238   0.000    0.000    0.000    0.000    0.000    0.000
   37     2       0.1593   0.000    0.000    0.000    0.000    0.000    0.000
   38     2       0.3043   0.000    0.000    0.000    0.000    0.000    0.000
   39     2       0.7319   0.000    0.000    0.000    0.000    0.000    0.000
   40     2       0.8400   0.000    0.000    0.000    0.000    0.000    0.000
   41     2       0.9295   0.000    0.000    0.000    0.000    0.000    0.000
   42     2       1.0804   0.000    0.000    0.000    0.000    0.000    0.000
   43     2       1.5792   0.000    0.000    0.000    0.000    0.000    0.000
   44     2       2.2545   0.000    0.000    0.000    0.000    0.000    0.000
   45     2       2.4033   0.000    0.000    0.000    0.000    0.000    0.000
   46     2       2.7124   0.000    0.000    0.000    0.000    0.000    0.000
   47     2       4.0539   0.000    0.000    0.000    0.000    0.000    0.000
   48     2       4.3136   0.000    0.000    0.000    0.000    0.000    0.000
   49     2       4.3748   0.000    0.000    0.000    0.000    0.000    0.000
   50     2       5.4088   0.000    0.000    0.000    0.000    0.000    0.000
   51     2       6.6966   0.000    0.000    0.000    0.000    0.000    0.000
   52     2       7.1134   0.000    0.000    0.000    0.000    0.000    0.000
   53     2       7.2238   0.000    0.000    0.000    0.000    0.000    0.000
   54     3       0.0472   0.000    0.000    0.000    0.000    0.000    0.000
   55     3       0.1818   0.000    0.000    0.000    0.000    0.000    0.000
   56     3       0.2264   0.000    0.000    0.000    0.000    0.000    0.000
   57     3       0.3642   0.000    0.000    0.000    0.000    0.000    0.000
   58     3       0.4609   0.000    0.000    0.000    0.000    0.000    0.000
   59     3       0.6011   0.000    0.000    0.000    0.000    0.000    0.000
   60     3       0.9057   0.000    0.000    0.000    0.000    0.000    0.000
   61     3       0.9262   0.000    0.000    0.000    0.000    0.000    0.000
   62     3       1.0349   0.000    0.000    0.000    0.000    0.000    0.000
   63     3       1.1080   0.000    0.000    0.000    0.000    0.000    0.000
   64     3       1.2713   0.000    0.000    0.000    0.000    0.000    0.000
   65     3       1.7478   0.000    0.000    0.000    0.000    0.000    0.000
   66     3       1.9667   0.000    0.000    0.000    0.000    0.000    0.000
   67     3       2.4386   0.000    0.000    0.000    0.000    0.000    0.000
   68     3       2.7121   0.000    0.000    0.000    0.000    0.000    0.000
   69     3       2.8614   0.000    0.000    0.000    0.000    0.000    0.000
   70     3       3.5842   0.000    0.000    0.000    0.000    0.000    0.000
   71     3       4.1824   0.000    0.000    0.000    0.000    0.000    0.000
   72     3       4.4622   0.000    0.000    0.000    0.000    0.000    0.000
   73     3       4.7177   0.000    0.000    0.000    0.000    0.000    0.000
   74     3       5.0366   0.000    0.000    0.000    0.000    0.000    0.000
   75     3       5.2643   0.000    0.000    0.000    0.000    0.000    0.000
   76     3       6.5506   0.000    0.000    0.000    0.000    0.000    0.000
   77     3       7.3262   0.000    0.000    0.000    0.000    0.000    0.000
   78     3       7.7912   0.000    0.000    0.000    0.000    0.000    0.000
   79     3       8.6064   0.000    0.000    0.000    0.000    0.000    0.000
   80     4       0.2631   0.000    0.000    0.000    0.000    0.000    0.000
   81     4       0.7191   0.000    0.000    0.000    0.000    0.000    0.000
   82     4       0.9158   0.000    0.000    0.000    0.000    0.000    0.000
   83     4       1.1630   0.000    0.000    0.000    0.000    0.000    0.000
   84     4       1.5056   0.000    0.000    0.000    0.000    0.000    0.000
   85     4       2.3108   0.000    0.000    0.000    0.000    0.000    0.000
   86     4       2.8642   0.000    0.000    0.000    0.000    0.000    0.000
   87     4       3.9815   0.000    0.000    0.000    0.000    0.000    0.000
   88     4       4.3694   0.000    0.000    0.000    0.000    0.000    0.000
   89     4       5.0918   0.000    0.000    0.000    0.000    0.000    0.000
   90     4       7.2213   0.000    0.000    0.000    0.000    0.000    0.000
   91     4       7.3640   0.000    0.000    0.000    0.000    0.000    0.000
------------------------------------------------------------------------------
  nsizec is                    331
  @DOEOMIP2-I, right-hand eigenvectors will be computed.
  Beginning symmetry block   2.   1 roots requested.
  1   1  0.5856219040D+00  0.1593558216D+02  0.0000000000D+00  0.4602329568D+00
  2   2  0.5285711253D+00  0.1438315155D+02  0.9945259547D+00  0.8881380359D-01
  3   3  0.5080969840D+00  0.1382602184D+02  0.9968474591D+00  0.2126263390D-01
  4   4  0.5071186008D+00  0.1379939868D+02  0.9998713790D+00  0.4115108043D-02
  L-O-C-K-I-N-G O-N R-O-O-T 
  5   5  0.5070116673D+00  0.1379648887D+02  0.9999966749D+00  0.1003570869D-02
  6   6  0.5070062416D+00  0.1379634123D+02  0.9999997859D+00  0.1773962941D-03
  7   7  0.5070064282D+00  0.1379634630D+02  0.9999999912D+00  0.4710483996D-04
  8   8  0.5070060010D+00  0.1379633468D+02  0.9999999995D+00  0.8526449686D-05
  9   9  0.5070060580D+00  0.1379633623D+02  0.1000000000D+01  0.2063456261D-05
 10  10  0.5070060503D+00  0.1379633602D+02  0.1000000000D+01  0.3894089033D-06
 11  11  0.5070060526D+00  0.1379633608D+02  0.1000000000D+01  0.6763051773D-07
 12  12  0.5070060525D+00  0.1379633608D+02  0.1000000000D+01  0.1163320396D-07
 13  13  0.5070060525D+00  0.1379633608D+02  0.1000000000D+01  0.2188035193D-08
 14  14  0.5070060525D+00  0.1379633608D+02  0.1000000000D+01  0.3621540059D-09
 15  15  0.5070060525D+00  0.1379633608D+02  0.1000000000D+01  0.7063906106D-10
  Converged eigenvalue:   0.507006052539841       a.u.
   Total EOMIP-CCSD electronic energy     -75.83351428773604 a.u.
          --------------------------------
             I    J    A       C(IJA)
          --------------------------------
              0    3    0    0.6978133556
              3    3   37   -0.0369737676
              3    3   41   -0.0312317320
              3    3   42   -0.0272902596
              4    3   58   -0.0271679278
              3    3   38    0.0266490475
              2    3   14   -0.0236694023
              2    3    6   -0.0224673319
              4    3   55   -0.0214560205
              2    3    9   -0.0203437837
              3    3   40   -0.0170739003
              1    3   10   -0.0159216832
              4    3   62   -0.0150826770
              1    3    7   -0.0131393099
              2    3   10   -0.0127864227
          --------------------------------

  Eigenvector is saved on CCRE_1_1  

  VIP all done  ! 
 @CHECKOUT-I, Total execution time (CPU/WALL):        0.20/       0.14 seconds.
--executable xvip finished with status     0 in        0.17 seconds (walltime).
  The final electronic energy is       -75.833514287736037 a.u. 
  This computation required                           17.97 seconds (walltime).
 
Timing info
28.745u 4.931s 0:17.98 187.2% 0+0k 0+502128io 43pf+0w
 
Scratch space info (BEFORE cleaning //scratch/mdavis)
 
Cleaning up ...
Filesystem      Size  Used Avail Use% Mounted on
/dev/sda9       785G  128G  618G  18% /scratch
 
Scratch space info (AFTER cleaning //scratch/mdavis)
Filesystem      Size  Used Avail Use% Mounted on
/dev/sda9       785G  127G  619G  18% /scratch
