 --invoking executable--
/home/qc/cfour_v2.1_intel_2017_eland2/bin/xjoda


   *************************************************************************
         <<<     CCCCCC     CCCCCC   |||     CCCCCC     CCCCCC   >>>
       <<<      CCC        CCC       |||    CCC        CCC         >>>
      <<<      CCC        CCC        |||   CCC        CCC            >>>
    <<<        CCC        CCC        |||   CCC        CCC              >>>
      <<<      CCC        CCC        |||   CCC        CCC            >>>
       <<<      CCC        CCC       |||    CCC        CCC         >>>
         <<<     CCCCCC     CCCCCC   |||     CCCCCC     CCCCCC   >>>
   *************************************************************************

     ****************************************************************
     * CFOUR Coupled-Cluster techniques for Computational Chemistry *
     ****************************************************************
 

   Department of Chemistry                Institut fuer Physikalische Chemie
   University of Florida                  Universitaet Mainz
   Gainesville, FL 32611, USA             D-55099 Mainz, Germany

   Department of Chemistry                Fakultaet fuer Chemie und Biowiss.
   Johns Hopkins University               Karlsruher Institut fuer Technologie
   Baltimore, MD 21218, USA               D-76131 Karlsruhe, Germany

   Department of Chemistry                Department of Physical Chemistry
   Southern Methodist University          Eotvos Lorand University
   Dallas, TX 75275, USA                  H-1053 Budapest, Hungary

 
                       Version 2.1
 
                     node10                                            
                     Fri 04 Nov 2022 09:26:59 AM CDT                   
                     integer*8 version is running
 
********************************************************************************
*                          Input from ZMAT file                                *
********************************************************************************
h2o AUG-PVTZ CC3                                                                
H        0.0000000000       -1.5581585701       -0.9750695447                   
O        0.0000000000        0.0093518624        0.1272583152                   
H        0.0000000000        1.5488067078       -0.9684529605                   
                                                                                
                                                                                
                                                                                
*CFOUR(CALC=CC3,BASIS=AUG-PVTZ,COORDINATES=CARTESIAN,UNITS=BOHR                 
CC_CONV=9                                                                       
LINEQ_CONV=12                                                                   
SCF_CONV=9                                                                      
ESTATE_CONV=10                                                                  
CHARGE=0                                                                        
MULTIPLICITY=1                                                                  
FROZEN_CORE=ON                                                                  
RELATIVISTIC=OFF                                                                
REFERENCE=RHF                                                                   
EXCITE=EOMIP                                                                    
ESTATE_SYM=0/1                                                                  
MEM_UNIT=GB,MEMORY_SIZE=32)                                                     
                                                                                
H:APVTZ-X2C                                                                     
O:APVTZ-X2C                                                                     
H:APVTZ-X2C                                                                     
                                                                                
********************************************************************************
    -------------------------------------------------------------------
                    CFOUR Control Parameters 
    -------------------------------------------------------------------
        External           Internal           Value            Units
          Name               Name
    -------------------------------------------------------------------
       ABCDTYPE             IABCDT         STANDARD    [  0]    ***   
       ANHARMONIC           IANHAR         OFF         [  0]    ***   
       ANH_ALGORIT          IANALG         STANDARD    [  0]    ***   
       ANH_DERIVAT          IANDER         SECOND      [  1]    ***   
       ANH_MODE             ANHMOD         VIBRATION   [  0]    ***   
       ANH_STEPSIZ          ICUBST             50000          x 10-6  
       ANH_SYMMETR          IANHSM         ABELIAN     [  0]    ***   
       AO_LADDERS           IAOLAD         SINGLEPASS  [  1]    ***   
       AV_SCF               IAVSCF         OFF         [  0]    ***   
       BASIS                IBASIS         AUG-PVTZ    [ 34]    ***   
       BOTHVECTORS          BOTHVC         OFF         [  0]    ***   
       BOX_POTENT           IPIAB          OFF         [  0]    ***   
       BREIT                IBREIT         OFF         [  0]    ***   
       BRUCK_CONV           IBRTOL          10D-  4             ***   
       BRUECKNER            IBRKNR         OFF         [  0]    ***   
       BUFFERSIZE           IBUFFS              4096            ***   
       CACHE_RECS           ICHREC             10               ***   
       CALCLEVEL            ICLLVL         CC3         [ 32]    ***   
       CCORBOPT             ICCORB         OFF         [  0]  x 0.01  
       CC_CONV              ICCCNV          10D-  9             ***   
       CC_EXPORDER          ICCEOR              5               ***   
       CC_EXTRAPOL          ICCEXT         DIIS        [  1]    ***   
       CC_GUESS             ICCGES         MP2         [  0]    ***   
       CC_MAXCYC            ICCCYC            100              cycles 
       CC_PROGRAM           ICCPRO         VCC         [  0]    ***   
       CHARGE               ICHRGE              0               ***   
       CHOLESKY             ICHOLE         OFF         [  0]    ***   
       CIS_CONV             ICISTL              5               ***   
       COMM_SIZE            IPSIZE            ***               ***   
       CONSTANT             ICONST         OLD         [  1]    ***   
       CONTINUUM            ICONTU         NONE        [  0]    ***   
       CONTRACTION          ICNTYP         GENERAL     [  1]    ***   
       COORDINATES          ICOORD         CARTESIAN   [  1]    ***   
       CPHF_CONVER          ICPHFT          10D- 16             ***   
       CPHF_MAXCYC          ICPHFC             64              cycles 
       CUBIC                ICUBIC         OFF         [  0]    ***   
       CURVILINEAR          ICURVY         OFF         [  0]    ***   
       DBOC                 IDBOC          OFF         [  0]    ***   
       DCT                  IDCT           OFF         [  0]    ***   
       DERIV_LEV            IDRLVL         ZERO        [  0]    ***   
       DEVMEM_SIZE          IDVMEM         *********           MByte  
       DIAG_MRCC            IEOMST          10D-  0             ***   
       DIFF_TYPE            IDIFTY         RELAXED     [  0]    ***   
       DIRECT               IDIRCT         OFF         [  0]    ***   
       DROPMO               IDRPMO      NONE         
       ECP                  IECP           OFF         [  0]    ***   
       EIGENVECTOR          IVEC                1               ***   
       EL_ANHARM            IELANH         OFF         [  0]    ***   
       EOMFOLLOW            IEOMSR         ENERGY      [  0]    ***   
       EOMIP                IEOMIP         OFF         [  0]    ***   
       EOMLEVEL             HBARFM         SAME        [  0]    ***   
       EOM_MRCC             IMRCCE         NEW         [  1]    ***   
       EOM_NONIT            EOMNON         OFF         [  0]    ***   
       EOM_NSING            IEOMSI          10D-  0             ***   
       EOM_NSTATES          IMRCCD         DAVIDSON    [  0]    ***   
       EOM_NTRIP            IEOMTR          10D-  0             ***   
       EOM_ORDER            IEXORD         ENERGY      [  0]    ***   
       EOM_PROPSTA          IEOMST              0               ***   
       ESTATE_CONV          IEXTOL          10D- 10             ***   
       ESTATE_DIAG          IEXDIG         ITERATIVE   [  0]    ***   
       ESTATE_LOCK          IESLOC         ON          [  1]    ***   
       ESTATE_MAXC          IEXMXC             40               ***   
       ESTATE_PROP          IEXPRP         OFF         [  0]    ***   
       ESTATE_SYM           IEXSYM   0,  1,
       EVAL_HESS            IRECAL              0            # of cyc.
       EXCITATION           IEXCIT              0               ***   
       EXCITE               IEXCIT         EOMIP       [  4]    ***   
       EXTERN_POT           IEXPOT         OFF         [  0]    ***   
       FCGRADNEW            IFCGNW         OFF         [  0]    ***   
       FC_FIELD             IFINFC              0             x 10-6  
       FD_CALTYPE           IFDCAL         GRADONLY    [  0]    ***   
       FD_PROJECT           IFDPRJ         OFF         [  1]    ***   
       FD_STEPSIZE          IDISFD              0            10-4 bohr
       FD_USEGROUP          IFDGRP         FULL        [  0]    ***   
       FILE_RECSIZ          IFLREC              4096           words  
       FINITE_PERT          IFIPER              0             x 10-6  
       FIXGEOM              IFIXGM         OFF         [  0]    ***   
       FOCK                 IFOCK          AO          [  1]    ***   
       FREQ_ALGORI          IVIALG         STANDARD    [  0]    ***   
       FROZEN_CORE          IFROCO         ON          [  1]    ***   
       GAMMA_ABCD           IGABCD         STORE       [  0]    ***   
       GAMMA_ABCI           IGABCI         STORE       [  0]    ***   
       GENBAS_1             IGNBS1              0               ***   
       GENBAS_2             IGNBS2              0               ***   
       GENBAS_3             IGNBS3              0               ***   
       GENBAS_4             IGNBS4              0               ***   
       GEO_CONV             ICONTL              5              H/bohr 
       GEO_MAXCYC           IOPTCY             50               ***   
       GEO_MAXSTEP          IMXSTP            300            millibohr
       GEO_METHOD           INR            SINGLE_POINT[  5]    ***   
       GIAO                 IGIAO          OFF         [  1]    ***   
       GIMIC                IGIMIC         OFF         [  0]    ***   
       GRID                 IGRID          OFF         [  0]    ***   
       GRID_ALGO            IGALGO         SERIAL      [  0]    ***   
       GUESS                IGUESS         MOREAD      [  0]    ***   
       HBAR                 IHBAR          ON          [  1]    ***   
       HESS_TYPE            IHESTP         SCF         [  0]    ***   
       HF2_FILE             IHF2Fl         USE         [  1]    ***   
       HFSTABILITY          ISTABL         OFF         [  0]    ***   
       INCORE               INCORE         OFF         [  0]    ***   
       INPUT_MRCC           IMRCC          ON          [  1]    ***   
       INTEGRALS            INTTYP         VMOL        [  1]    ***   
       JODA_PRINT           IJPRNT              0               ***   
       KEYWORD_OUT          IDMPKW         NO          [  0]    ***   
       LINDEP_TOL           ILINDP              8               ***   
       LINEQ_CONV           IZTACN          10D- 12           cycles  
       LINEQ_EXPOR          ILMAXD              5               ***   
       LINEQ_MAXCY          ILMAXC            100               ***   
       LINEQ_TYPE           ILTYPE         DIIS        [  1]    ***   
       LOCK_ORBOCC          ILOCOC         OFF         [  0]    ***   
       MEMORY_SIZE          IMEMSZ         *********           words  
       MEM_UNIT             IMEMU          GB          [  3]    ***   
       MRCC                 IMRCCC         OFF         [  0]    ***   
       MULTIPLICTY          IMULTP              1               ***   
       NACOUPLING           IVCOUP         OFF         [  0]    ***   
       NEGEVAL              IDIE           ABORT       [  0]    ***   
       NEWNORM              INEWNO         OFF         [  0]    ***   
       NON-HF               INONHF         OFF         [  0]    ***   
       NTOP_TAMP            ITOPT2             15               ***   
       NUC_MODEL            INUCMO         POINT       [  0]    ***   
       OCCUPATION           IOCCU   ESTIMATED BY SCF 
       OPEN-SHELL           IOPEN          SPIN-ORBITAL[  0]    ***   
       OPTVIB               IOPTVB         OFF         [  0]    ***   
       ORBITALS             IORBTP         STANDARD    [  0]    ***   
       PARALLEL             IPARAL         ON          [  1]    ***   
       PARA_INT             IPINTS         ON          [  1]    ***   
       PARA_PRINT           IPPRIN              0               ***   
       PERT_ORB             IPTORB         STANDARD    [  0]    ***   
       POINTS               IGRDFD              0               ***   
       PRINT                IPRNT               0               ***   
       PROPS                IPROPS         OFF         [  0]    ***   
       PROP_INTEGR          IINTYP         INTERNAL    [  0]    ***   
       PSI                  IPSI           OFF         [  0]    ***   
       QC_ALG               IQCALG         FLM         [  0]    ***   
       QC_LINALG            IQCLIN         TRIDIAG     [  2]    ***   
       QC_MAXCYC            IQCMAX          10D-100           cycles  
       QC_MAXSCFCY          IQCMSC          10D- 15           cycles  
       QC_RTRUST            IQCRTR          10D-  0           x 10-3  
       QC_SKIPSCF           IQCSKI         OFF         [  0]    ***   
       QC_START             IQCSTA          10D-  1             ***   
       QRHFGUESS            IQGUES         OFF         [  0]    ***   
       QUARTIC              IQUART         OFF         [  0]    ***   
       RAMAN_INT            IRAMIN         OFF         [  0]    ***   
       RAMAN_ORB            IRAMRE         UNRELAXED   [  0]    ***   
       RDO                  IRDOFM         OFF         [  0]    ***   
       REDUCE_REPR          REDREP         Ir          [  0]    ***   
       REFERENCE            IREFNC         RHF         [  0]    ***   
       RELATIVIST           IRELAT         OFF         [  0]    ***   
       RELAX_DENS           IRDENS         OFF         [  0]    ***   
       RESET_FLAGS          IRESET         OFF         [  0]    ***   
       RESTART_CC           ICCRES         OFF         [  0]    ***   
       ROT_EVEC             ROTVEC              0               ***   
       SAVE_INTS            ISVINT         OFF         [  0]    ***   
       SCALE_ON             ISTCRT              0               ***   
       SCF_CONV             ISCFCV          10D-  9             ***   
       SCF_DAMPING          IDAMP               0             x 10-3  
       SCF_EXPORDE          IRPPOR              6               ***   
       SCF_EXPSTAR          IRPPLS              8               ***   
       SCF_EXTRAPO          IRPP           ON          [  1]    ***   
       SCF_MAXCYC           ISCFCY            150              cycles 
       SCF_NOSTOP           ISCFST         OFF         [  0]    ***   
       SCF_PRINT            ISCFPR              0               ***   
       SCF_PROG             ISCFPR         SCF         [  0]    ***   
       SD_FIELD             IFINSD              0             x 10-6  
       SOPERT               IPERSO         OFF         [  0]    ***   
       SPHERICAL            IDFGHI         ON          [  1]    ***   
       SPINORBIT            ISOCAL         OFF         [  0]    ***   
       SPINROTATIO          ISRCON         OFF         [  0]    ***   
       SPIN_FLIP            ISPFLP         OFF         [  0]    ***   
       SPIN_ORBIT           ISPORB         OFF         [  0]    ***   
       SPIN_SCAL            ISCSMP         OFF         [  0]    ***   
       STEEPSCALE           ISTPSC              1000          x 10-3  
       SUBGROUP             ISUBGP         DEFAULT     [  0]    ***   
       SUBGRPAXIS           ISBXYZ         X           [  0]    ***   
       SYMMETRY             ISYM           ON          [  0]    ***   
       SYM_CHECK            ISYMCK         OVERRIDE    [  1]    ***   
       T3_EXTRAPOL          IT3EXT         OFF         [  0]    ***   
       T4_EXTRAPOL          IT4EXP         OFF         [  0]    ***   
       TAMP_SUM             IEVERY              5               ***   
       TESTSUITE            ITESTS         OFF         [  0]    ***   
       THERMOCH             ITHERM         OFF         [  0]    ***   
       TOL_CHOLESK          ITOLCH          10D-  4             ***   
       TRANGRAD             IRESRM         OFF         [  0]    ***   
       TRANS_INV            ITRAIN         USE         [  0]    ***   
       TREAT_PERT           ITREAT         SIMULTANEOUS[  0]    ***   
       TRIP_ALGORI          ITRALG         NORMAL      [  0]    ***   
       UIJ_THRESHO          IUIJTH              1               ***   
       UNITS                IUNITS         BOHR        [  1]    ***   
       UNOS                 IUNOS          OFF         [  0]    ***   
       UPDATE_HESS          IHUPDT         ON          [  1]    ***   
       VIBPHASE             ISETPH         STANDARD    [  0]    ***   
       VIBRATION            IVIB           NO          [  0]    ***   
       VIB_ALGORIT          IGEALG         STANDARD    [  0]    ***   
       VNATORB              IVNORB         OFF         [  0]    ***   
       VTRAN                IVTRAN         FULL/PARTIAL[  0]    ***   
       XFIELD               IXEFLD              0             x 10-6  
       XFORM_TOL            IXFTOL          10D- 11             ***   
       YFIELD               IYEFLD              0             x 10-6  
       ZFIELD               IZEFLD              0             x 10-6  
       ZSCALE_EXP           IZEXPS         OFF         [  0]    ***   
    -------------------------------------------------------------------
  @GETXYZ-I,     3 atoms read from ZMAT.
   Rotational constants (in cm-1): 
          8.5670584478            12.3733557485            27.8494435713
   Rotational constants (in MHz): 
     256833.9869700429        370943.9253227460        834905.4311858885
********************************************************************************
   The full molecular point group is C s .
   The largest Abelian subgroup of the full molecular point group is C s .
   The computational point group is C s .
********************************************************************************


 ----------------------------------------------------------------
         Coordinates used in calculation (QCOMP) 
 ----------------------------------------------------------------
 Z-matrix   Atomic            Coordinates (in bohr)
  Symbol    Number           X              Y              Z
 ----------------------------------------------------------------
     H         1        -1.57953624    -0.95724846     0.00000000
     O         8         0.00329667     0.12296247     0.00000000
     H         1         1.52721569    -0.99425517     0.00000000
 ----------------------------------------------------------------
 
   Interatomic distance matrix (Angstroms) 
 
                 H             O             H    
                [ 1]        [ 2]        [ 3]
  H    [ 1]     0.00000
  O    [ 2]     1.01406     0.00000
  H    [ 3]     1.64414     0.99992     0.00000
 rotcon2
   Rotational constants (in cm-1): 
         27.8494435713            12.3733557485             8.5670584478
   Rotational constants (in MHz): 
     834905.4311858885        370943.9253227460        256833.9869700429
  There is   1 frozen-core orbital.
  There are   92 basis functions.
 @GEOPT-W, Archive file not created for single-point calculation.
 @CHECKOUT-I, Total execution time (CPU/WALL):        0.11/       0.14 seconds.
--executable xjoda finished with status     0 in        0.16 seconds (walltime).
 --invoking executable--
/home/qc/cfour_v2.1_intel_2017_eland2/bin/xvmol
 SERIAL VERSION OF MOLECULE STARTED
********************************************************************************
                    INPUT FROM MOL FILE
********************************************************************************
INTGRL        1    0    1    0    0    0    0    0    0                         
         *** CFOUR Program System (Release V0.1) ***                            
h2o AUG-PVTZ CC3                                                                
    3    1 Z          0.10E-08              0    0                              
   9999.00      3.00                                                            
          1.00000000    1    3    1    1    1                                   
H #1  -1.579536239137760  -0.957248456872144   0.000000000000000                
    6    4                                                                      
   33.8700000000000       6.068000000000000E-003  0.000000000000000E+000        
  0.000000000000000E+000  0.000000000000000E+000                                
   5.09500000000000       4.530800000000000E-002  0.000000000000000E+000        
  0.000000000000000E+000  0.000000000000000E+000                                
   1.15900000000000       0.202822000000000       0.000000000000000E+000        
  0.000000000000000E+000  0.000000000000000E+000                                
  0.325800000000000       0.503903000000000        1.00000000000000             
  0.000000000000000E+000  0.000000000000000E+000                                
  0.102700000000000       0.383421000000000       0.000000000000000E+000        
   1.00000000000000       0.000000000000000E+000                                
  2.526000000000000E-002  0.000000000000000E+000  0.000000000000000E+000        
  0.000000000000000E+000   1.00000000000000                                     
    3    3                                                                      
   1.40700000000000        1.00000000000000       0.000000000000000E+000        
  0.000000000000000E+000                                                        
  0.388000000000000       0.000000000000000E+000   1.00000000000000             
  0.000000000000000E+000                                                        
  0.102000000000000       0.000000000000000E+000  0.000000000000000E+000        
   1.00000000000000                                                             
    2    2                                                                      
   1.05700000000000        1.00000000000000       0.000000000000000E+000        
  0.247000000000000       0.000000000000000E+000   1.00000000000000             
          8.00000000    1    4    1    1    1    1                              
O #2   0.003296670545529   0.122962470091466   0.000000000000000                
   11    5                                                                      
   15330.0000000000       5.080000000000000E-004 -1.150000000000000E-004        
  0.000000000000000E+000  0.000000000000000E+000  0.000000000000000E+000        
   2299.00000000000       3.929000000000000E-003 -8.950000000000000E-004        
  0.000000000000000E+000  0.000000000000000E+000  0.000000000000000E+000        
   522.400000000000       2.024300000000000E-002 -4.636000000000000E-003        
  0.000000000000000E+000  0.000000000000000E+000  0.000000000000000E+000        
   147.300000000000       7.918100000000000E-002 -1.872400000000000E-002        
  0.000000000000000E+000  0.000000000000000E+000  0.000000000000000E+000        
   47.5500000000000       0.230687000000000      -5.846300000000000E-002        
  0.000000000000000E+000  0.000000000000000E+000  0.000000000000000E+000        
   16.7600000000000       0.433118000000000      -0.136463000000000             
  0.000000000000000E+000  0.000000000000000E+000  0.000000000000000E+000        
   6.20700000000000       0.350260000000000      -0.175740000000000             
  0.000000000000000E+000  0.000000000000000E+000  0.000000000000000E+000        
   1.75200000000000       4.272800000000000E-002  0.160934000000000             
   1.00000000000000       0.000000000000000E+000  0.000000000000000E+000        
  0.688200000000000      -8.154000000000000E-003  0.603418000000000             
  0.000000000000000E+000  0.000000000000000E+000  0.000000000000000E+000        
  0.238400000000000       2.381000000000000E-003  0.378765000000000             
  0.000000000000000E+000   1.00000000000000       0.000000000000000E+000        
  7.376000000000001E-002  0.000000000000000E+000  0.000000000000000E+000        
  0.000000000000000E+000  0.000000000000000E+000   1.00000000000000             
    6    4                                                                      
   34.4600000000000       1.592800000000000E-002  0.000000000000000E+000        
  0.000000000000000E+000  0.000000000000000E+000                                
   7.74900000000000       9.974000000000000E-002  0.000000000000000E+000        
  0.000000000000000E+000  0.000000000000000E+000                                
   2.28000000000000       0.310492000000000       0.000000000000000E+000        
  0.000000000000000E+000  0.000000000000000E+000                                
  0.715600000000000       0.491026000000000        1.00000000000000             
  0.000000000000000E+000  0.000000000000000E+000                                
  0.214000000000000       0.336337000000000       0.000000000000000E+000        
   1.00000000000000       0.000000000000000E+000                                
  5.974000000000000E-002  0.000000000000000E+000  0.000000000000000E+000        
  0.000000000000000E+000   1.00000000000000                                     
    3    3                                                                      
   2.31400000000000        1.00000000000000       0.000000000000000E+000        
  0.000000000000000E+000                                                        
  0.645000000000000       0.000000000000000E+000   1.00000000000000             
  0.000000000000000E+000                                                        
  0.214000000000000       0.000000000000000E+000  0.000000000000000E+000        
   1.00000000000000                                                             
    2    2                                                                      
   1.42800000000000        1.00000000000000       0.000000000000000E+000        
  0.500000000000000       0.000000000000000E+000   1.00000000000000             
          1.00000000    1    3    1    1    1                                   
H #3   1.527215685363286  -0.994255170746046   0.000000000000000                
    6    4                                                                      
   33.8700000000000       6.068000000000000E-003  0.000000000000000E+000        
  0.000000000000000E+000  0.000000000000000E+000                                
   5.09500000000000       4.530800000000000E-002  0.000000000000000E+000        
  0.000000000000000E+000  0.000000000000000E+000                                
   1.15900000000000       0.202822000000000       0.000000000000000E+000        
  0.000000000000000E+000  0.000000000000000E+000                                
  0.325800000000000       0.503903000000000        1.00000000000000             
  0.000000000000000E+000  0.000000000000000E+000                                
  0.102700000000000       0.383421000000000       0.000000000000000E+000        
   1.00000000000000       0.000000000000000E+000                                
  2.526000000000000E-002  0.000000000000000E+000  0.000000000000000E+000        
  0.000000000000000E+000   1.00000000000000                                     
    3    3                                                                      
   1.40700000000000        1.00000000000000       0.000000000000000E+000        
  0.000000000000000E+000                                                        
  0.388000000000000       0.000000000000000E+000   1.00000000000000             
  0.000000000000000E+000                                                        
  0.102000000000000       0.000000000000000E+000  0.000000000000000E+000        
   1.00000000000000                                                             
    2    2                                                                      
   1.05700000000000        1.00000000000000       0.000000000000000E+000        
  0.247000000000000       0.000000000000000E+000   1.00000000000000             
FINISH                                                                          
 
********************************************************************************
 ONE- AND TWO-ELECTRON INTEGRALS OVER SYMMETRY-ADAPTED AOS ARE CALCULATED.

  SPHERICAL HARMONICS ARE USED.
  
  INTEGRALS LESS THAN  0.10E-13 ARE NEGLECTED.

  NUCLEAR REPULSION ENERGY :    8.7303126588 A.U.
  @MOLECU-I, ONE ELECTRON INTEGRALS (CPU/WALL):        0.02/       0.02 SECONDS.
  @TWOEL-I,    1908019 INTEGRALS OF SYMMETRY TYPE  I I I I
  @TWOEL-I,    1629646 INTEGRALS OF SYMMETRY TYPE  I J I J
  @TWOEL-I,     852741 INTEGRALS OF SYMMETRY TYPE  I I J J
  @TWOEL-I, TOTAL NUMBER OF 2-E INTEGRALS    4390406.
  @MOLECU-I, TWO ELECTRON INTEGRALS (CPU/WALL):        1.26/       1.26 SECONDS.
 @CHECKOUT-I, Total execution time (CPU/WALL):        1.28/       1.29 seconds.

OMP_NUM_THREADS not specified; defaulting to 1
Running with 1 threads/proc

--executable xvmol finished with status     0 in        1.31 seconds (walltime).
 --invoking executable--
/home/qc/cfour_v2.1_intel_2017_eland2/bin/xvmol2ja
 @GETMEM-I,  Allocated   30517 MB of main memory.
 @CHECKOUT-I, Total execution time (CPU/WALL):        0.01/       0.01 seconds.
--executable xvmol2ja finished with status     0 in        0.03 seconds (walltime).
 --invoking executable--
/home/qc/cfour_v2.1_intel_2017_eland2/bin/xvscf
  There are   92 functions in the AO basis.

  There are 2 irreducible representations.

       Irrep        # of functions
         1                 62
         2                 30


  Parameters for SCF calculation: 
        SCF reference function:  RHF  
  Maximum number of iterations:  150
     Full symmetry point group: C s 
     Computational point group: C s 
        Initial density matrix: MOREAD                 
     SCF convergence tolerance: 10**(- 9)
  DIIS convergence acceleration:  ON
          Latest start for DIIS:   8
                     DIIS order:   6

  Memory information:     429020 words required.
  Fock matrices are constructed from AO integral file.
 @GETMEM-I,  Allocated       3 MB of main memory.
  Initialization and symmetry analysis required      0.001 seconds.

  @INITGES-I, Occupancies from core Hamiltonian:

          Alpha population by irrep:   4    1
           Beta population by irrep:   4    1


 total no. of electrons in initial guess :  0.000000000000000E+000
  --------------------------------------------------------------------
  Iteration         Total Energy            Largest Density Difference
  --------------------------------------------------------------------
       0             8.730312658781834              0.0000000000D+00
   current occupation vector 
     4  1
     4  1
       1           -61.226385725768715              0.1230764011D+02
   current occupation vector 
     4  1
     4  1
       2           -63.676702550444112              0.3093409184D+02
   current occupation vector 
     5  0
     5  0
       3           -70.747551438521697              0.3093426355D+02
   current occupation vector 
     4  1
     4  1
       4           -67.719653416435932              0.2624032579D+02
   current occupation vector 
     5  0
     5  0
       5           -72.093668173611093              0.2623990581D+02
   current occupation vector 
     4  1
     4  1
       6           -68.681880587130848              0.2463280154D+02
   current occupation vector 
     5  0
     5  0
       7           -72.461662289722938              0.2463292446D+02
   current occupation vector 
     4  1
     4  1
       8           -68.949476191105703              0.2421086770D+02
   current occupation vector 
     5  0
     5  0
       9           -75.748093077921880              0.2421162424D+02
   current occupation vector 
     4  1
     4  1
      10           -76.040851033804188              0.5418330234D+00
   current occupation vector 
     4  1
     4  1
      11           -76.052024259427299              0.9540485873D-01
   current occupation vector 
     4  1
     4  1
      12           -76.052164330747189              0.1243014003D-01
   current occupation vector 
     4  1
     4  1
      13           -76.052178401541482              0.4259295233D-02
   current occupation vector 
     4  1
     4  1
      14           -76.052180627987696              0.2474433949D-02
   current occupation vector 
     4  1
     4  1
      15           -76.052180669174788              0.3502548512D-03
   current occupation vector 
     4  1
     4  1
      16           -76.052180670012206              0.3764236772D-04
   current occupation vector 
     4  1
     4  1
      17           -76.052180670107475              0.1897486023D-04
   current occupation vector 
     4  1
     4  1
      18           -76.052180670110147              0.3406998373D-05
   current occupation vector 
     4  1
     4  1
      19           -76.052180670110630              0.3294921869D-06
   current occupation vector 
     4  1
     4  1
      20           -76.052180670110232              0.6876436376D-07
   current occupation vector 
     4  1
     4  1
      21           -76.052180670110062              0.1581126585D-07
   current occupation vector 
     4  1
     4  1
      22           -76.052180670109777              0.4041944959D-08
   current occupation vector 
     4  1
     4  1
      23           -76.052180670110374              0.1252165927D-08
   current occupation vector 
     4  1
     4  1

  SCF has converged.

 Density matrix saved to file den.dat
 total electron number:   10.0000000000000     
     E(SCF)=       -76.052180670110658              0.3398116788D-09

  Eigenvector printing suppressed.

 @PUTMOS-I, Writing converged MOs to NEWMOS. 
 @PUTMOS-I, Symmetry   1 Full Blocks 15 Partial Blocksize   2
 @PUTMOS-I, Symmetry   2 Full Blocks  7 Partial Blocksize   2
 @PUTFOCK-I, Writing converged Fock matrix to NEWFOCK. 
 @PUTFOCK-I, Symmetry   1 Full Blocks 15 Partial Blocksize   2
 @PUTFOCK-I, Symmetry   2 Full Blocks  7 Partial Blocksize   2


 
  ORBITAL EIGENVALUES (ALPHA)  (1H = 27.2113834 eV)

       MO #        E(hartree)               E(eV)           FULLSYM    COMPSYM
       ----   --------------------   --------------------   -------   ---------
    1     1         -20.5732100353        -559.8255060385     A'        A'  (1)
    2     2          -1.3263008524         -36.0904809983     A'        A'  (1)
    3     3          -0.6997942587         -19.0423698754     A'        A'  (1)
    4     4          -0.5660628692         -15.4033537632     A'        A'  (1)
    5    63          -0.5049009072         -13.7390521638     A''       A'' (2)
  +++++++++++++++++++++++++++++++++++++++++++++++++++++++++++++++++++++++++++++
    6     5           0.0290353131           0.7900910368     A'        A'  (1)
    7     6           0.0471522596           1.2830782132     A'        A'  (1)
    8     7           0.1362796326           3.7083573323     A'        A'  (1)
    9    64           0.1602179416           4.3597518357     A''       A'' (2)
   10     8           0.1718199446           4.6754583892     A'        A'  (1)
   11     9           0.1816376347           4.9426113183     A'        A'  (1)
   12    10           0.2247169514           6.1148591220     A'        A'  (1)
   13    11           0.2422384892           6.5916444036     A'        A'  (1)
   14    65           0.2629955300           7.1564721998     A''       A'' (2)
   15    66           0.3035606930           8.2603064013     A''       A'' (2)
   16    12           0.3120510640           8.4913411425     A'        A'  (1)
   17    13           0.3638460504           9.9007543750     A'        A'  (1)
   18    14           0.4267581626          11.6126799803     A'        A'  (1)
   19    15           0.4573747476          12.4457996147     A'        A'  (1)
   20    16           0.6003182354          16.3354896653     A'        A'  (1)
   21    17           0.6480803273          17.6351622588     A'        A'  (1)
   22    18           0.7108409898          19.3429667095     A'        A'  (1)
   23    67           0.7197880189          19.5864277481     A''       A'' (2)
   24    68           0.7325552700          19.9338423137     A''       A'' (2)
   25    19           0.8104082277          22.0523289951     A'        A'  (1)
   26    69           0.8384903794          22.8164831920     A''       A'' (2)
   27    20           0.9004469725          24.5024077998     A'        A'  (1)
   28    21           0.9016274544          24.5345303452     A'        A'  (1)
   29    70           0.9135670698          24.8594237972     A''       A'' (2)
   30    22           0.9261747886          25.2024972671     A'        A'  (1)
   31    71           0.9319099107          25.3585578742     A''       A'' (2)
   32    23           0.9683931573          26.3513174848     A'        A'  (1)
   33    24           1.0066341604          27.3919080831     A'        A'  (1)
   34    25           1.0300578909          28.0293001924     A'        A'  (1)
   35    72           1.0769828623          29.3061935824     A''       A'' (2)
   36    26           1.1036940016          30.0330406348     A'        A'  (1)
   37    27           1.1566659769          31.4744813621     A'        A'  (1)
   38    73           1.1582193650          31.5167512025     A''       A'' (2)
   39    28           1.2780597661          34.7777743039     A'        A'  (1)
   40    74           1.4996669635          40.8080127169     A''       A'' (2)
   41    75           1.5692355700          42.7010707401     A''       A'' (2)
   42    29           1.5827439062          43.0686512565     A'        A'  (1)
   43    30           1.7324378389          47.1420302498     A'        A'  (1)
   44    31           1.8187851222          49.4916592834     A'        A'  (1)
   45    32           1.9439427033          52.8973702084     A'        A'  (1)
   46    33           2.0643082717          56.1726838376     A'        A'  (1)
   47    76           2.2524322172          61.2917966451     A''       A'' (2)
   48    77           2.3066213641          62.7663582976     A''       A'' (2)
   49    34           2.3241026776          63.2420490213     A'        A'  (1)
   50    35           2.3965397403          65.2131617054     A'        A'  (1)
   51    78           2.3995784839          65.2958501232     A''       A'' (2)
   52    36           2.4383214342          66.3500993975     A'        A'  (1)
   53    37           2.4995241660          68.0155103984     A'        A'  (1)
   54    38           2.7088900485          73.7126456980     A'        A'  (1)
   55    79           2.7149462540          73.8774434275     A''       A'' (2)
   56    39           2.7253671340          74.1610099895     A'        A'  (1)
   57    80           2.8537798700          77.6552981827     A''       A'' (2)
   58    40           2.8588638131          77.7936393059     A'        A'  (1)
   59    41           3.5507332004          96.6203624677     A'        A'  (1)
   60    42           3.6990822991         100.6571466697     A'        A'  (1)
   61    81           3.9701293906         108.0327129957     A''       A'' (2)
   62    82           4.0357160296         109.8174161739     A''       A'' (2)
   63    43           4.1559574950         113.0893527898     A'        A'  (1)
   64    44           4.1688066457         113.4389959579     A'        A'  (1)
   65    83           4.2901014301         116.7395948380     A''       A'' (2)
   66    84           4.3618875471         118.6929943914     A''       A'' (2)
   67    85           4.3696619052         118.9045454305     A''       A'' (2)
   68    45           4.4465829273         120.9976728547     A'        A'  (1)
   69    46           4.4662617886         121.5331618944     A'        A'  (1)
   70    47           4.6220287599         125.7717966721     A'        A'  (1)
   71    48           4.6731291310         127.1623084618     A'        A'  (1)
   72    49           4.9871545287         135.7073739560     A'        A'  (1)
   73    86           5.0454220703         137.2929143694     A''       A'' (2)
   74    50           5.1432390038         139.9546484509     A'        A'  (1)
   75    51           5.2383885224         142.5437984807     A'        A'  (1)
   76    87           5.3550873719         145.7193356160     A''       A'' (2)
   77    52           5.6286752135         153.1640392696     A'        A'  (1)
   78    53           6.0500820491         164.6311022386     A'        A'  (1)
   79    54           6.5597801826         178.5006935697     A'        A'  (1)
   80    88           6.6918657326         182.0949241111     A''       A'' (2)
   81    55           6.7809632200         184.5193899996     A'        A'  (1)
   82    89           7.0854791794         192.8056905244     A''       A'' (2)
   83    90           7.1803323153         195.3867755702     A''       A'' (2)
   84    91           7.2178459964         196.4075747290     A''       A'' (2)
   85    56           7.2740261662         197.9363148698     A'        A'  (1)
   86    57           7.2886328542         198.3337830580     A'        A'  (1)
   87    92           7.3650626900         200.4135446232     A''       A'' (2)
   88    58           7.4193488831         201.8907470376     A'        A'  (1)
   89    59           7.7556779057         211.0427250191     A'        A'  (1)
   90    60           7.8770363310         214.3450556590     A'        A'  (1)
   91    61           8.5080998286         231.5171664407     A'        A'  (1)
   92    62          14.4458135950         393.0905722591     A'        A'  (1)


  VSCF finished.

 @CHECKOUT-I, Total execution time (CPU/WALL):        3.52/       1.77 seconds.
--executable xvscf finished with status     0 in        1.79 seconds (walltime).
 --invoking executable--
/home/qc/cfour_v2.1_intel_2017_eland2/bin/xvtran
 @GETMEM-I,  Allocated   30517 MB of main memory.
  Full RHF integral transformation
  The following   1 MOs will be dropped:
    1
  There are  91 active molecular orbitals.
  Transformation of IIII integrals :
  1 pass through the AO integral file was required.
     1908019 AO integrals were read.
     1897231 MO integrals were written to HF2.
  Transformation of IIJJ integrals :
  1 pass through the AO integral file was required.
      852741 AO integrals were read.
      879315 MO integrals were written to HF2.
  Transformation of IJIJ integrals :
  1 pass through the AO integral file was required.
     1629646 AO integrals were read.
     1675365 MO integrals were written to HF2.
  Summary of active molecular orbitals: 
------------------------------------------------------------------------
 
  Index      Eigenvalue    Symmetry    Index      Eigenvalue    Symmetry
------------------------------------------------------------------------
     1        -1.3263009        1        47         4.6220288        1
     2        -0.6997943        1        48         4.6731291        1
     3        -0.5660629        1        49         4.9871545        1
     4        -0.5049009        2        50         5.1432390        1
     5         0.0290353        1        51         5.2383885        1
     6         0.0471523        1        52         5.6286752        1
     7         0.1362796        1        53         6.0500820        1
     8         0.1718199        1        54         6.5597802        1
     9         0.1816376        1        55         6.7809632        1
    10         0.2247170        1        56         7.2740262        1
    11         0.2422385        1        57         7.2886329        1
    12         0.3120511        1        58         7.4193489        1
    13         0.3638461        1        59         7.7556779        1
    14         0.4267582        1        60         7.8770363        1
    15         0.4573747        1        61         8.5080998        1
    16         0.6003182        1        62        14.4458136        1
    17         0.6480803        1        63         0.1602179        2
    18         0.7108410        1        64         0.2629955        2
    19         0.8104082        1        65         0.3035607        2
    20         0.9004470        1        66         0.7197880        2
    21         0.9016275        1        67         0.7325553        2
    22         0.9261748        1        68         0.8384904        2
    23         0.9683932        1        69         0.9135671        2
    24         1.0066342        1        70         0.9319099        2
    25         1.0300579        1        71         1.0769829        2
    26         1.1036940        1        72         1.1582194        2
    27         1.1566660        1        73         1.4996670        2
    28         1.2780598        1        74         1.5692356        2
    29         1.5827439        1        75         2.2524322        2
    30         1.7324378        1        76         2.3066214        2
    31         1.8187851        1        77         2.3995785        2
    32         1.9439427        1        78         2.7149463        2
    33         2.0643083        1        79         2.8537799        2
    34         2.3241027        1        80         3.9701294        2
    35         2.3965397        1        81         4.0357160        2
    36         2.4383214        1        82         4.2901014        2
    37         2.4995242        1        83         4.3618875        2
    38         2.7088900        1        84         4.3696619        2
    39         2.7253671        1        85         5.0454221        2
    40         2.8588638        1        86         5.3550874        2
    41         3.5507332        1        87         6.6918657        2
    42         3.6990823        1        88         7.0854792        2
    43         4.1559575        1        89         7.1803323        2
    44         4.1688066        1        90         7.2178460        2
    45         4.4465829        1        91         7.3650627        2
    46         4.4662618        1
------------------------------------------------------------------------
  -1.32630085239790      -0.699794258727639      -0.566062869232640     
 -0.504900907161243       2.903531309791531E-002  4.715225956630218E-002
  0.136279632599814       0.171819944634786       0.181637634721021     
  0.224716951435513       0.242238489191472       0.312051063986929     
  0.363846050361812       0.426758162553259       0.457374747608689     
  0.600318235391682       0.648080327251817       0.710840989784242     
  0.810408227722429       0.900446972488638       0.901627454383179     
  0.926174788567373       0.968393157282623        1.00663416043426     
   1.03005789085909        1.10369400163690        1.15666597686186     
   1.27805976611722        1.58274390623341        1.73243783885794     
   1.81878512223830        1.94394270334719        2.06430827172271     
   2.32410267760597        2.39653974025456        2.43832143416377     
   2.49952416599141        2.70889004849472        2.72536713401697     
   2.85886381307268        3.55073320041953        3.69908229912680     
   4.15595749497305        4.16880664574630        4.44658292730196     
   4.46626178859986        4.62202875992453        4.67312913101560     
   4.98715452871685        5.14323900382311        5.23838852238337     
   5.62867521353440        6.05008204906545        6.55978018264540     
   6.78096321995867        7.27402616618835        7.28863285421991     
   7.41934888314366        7.75567790570558        7.87703633101727     
   8.50809982856974        14.4458135950240       0.160217941572199     
  0.262995530016589       0.303560692960163       0.719788018864589     
  0.732555270000307       0.838490379435993       0.913567069773221     
  0.931909910697384        1.07698286234011        1.15821936500569     
   1.49966696352796        1.56923556999654        2.25243221721283     
   2.30662136411463        2.39957848387787        2.71494625398202     
   2.85377987003346        3.97012939061792        4.03571602956156     
   4.29010143005223        4.36188754708539        4.36966190519156     
   5.04542207028700        5.35508737185474        6.69186573259850     
   7.08547917943768        7.18033231526921        7.21784599635620     
   7.36506269002130     
 @CHECKOUT-I, Total execution time (CPU/WALL):        3.09/       2.08 seconds.
--executable xvtran finished with status     0 in        2.10 seconds (walltime).
 --invoking executable--
/home/qc/cfour_v2.1_intel_2017_eland2/bin/xintprc
 @GETMEM-I,  Allocated   30517 MB of main memory.
  @GMOIAA-I, Processing MO integrals for spin case AA.
  @GMOIAA-I, Generation of integral list completed.
                      TYPE                NUMBER
                      ----               --------
                      PPPP               3719134
                      PPPH                679528
                      PPHH                 31291
                      PHPH                 20068
                      PHHH                  1856
                      HHHH                    34

                     TOTAL               4451911

  @FORMT2-I, Second-order MP correlation energies:
            ------------------------------------------------
            E(SCF)                  =    -76.052180670111 a.u.
            E2(AA)                  =     -0.032983955020 a.u.
            E2(AB)                  =     -0.206070874648 a.u.
            E2(TOT)                 =     -0.272038784687 a.u.
            Total MP2 energy        =    -76.324219454797 a.u.
            ------------------------------------------------
   Largest T2 amplitudes for spin case AB:
       _       _                 _       _                 _       _
   i   j   a   b             i   j   a   b             i   j   a   b
-----------------------------------------------------------------------------
[  2   2  15  15]-0.02168 [  3   3  20  20]-0.01905 [  4   4  71  71]-0.01633
[  4   4  70  70]-0.01487 [  3   2  20  15]-0.01393 [  2   3  15  20]-0.01393
[  2   2  25  15]-0.01358 [  2   2  15  25]-0.01358 [  4   4  71  70]-0.01354
[  4   4  70  71]-0.01354 [  2   2   9  15]-0.01338 [  2   2  15   9]-0.01338
[  4   3  70  20]-0.01298 [  3   4  20  70]-0.01298 [  2   2  17  17]-0.01269
-----------------------------------------------------------------------------
   Norm of T2AB vector (    62234 symmetry allowed elements):  0.2232244957.
-----------------------------------------------------------------------------
 @CHECKOUT-I, Total execution time (CPU/WALL):        0.84/       0.65 seconds.
--executable xintprc finished with status     0 in        0.67 seconds (walltime).
  calling xvcc 
 --invoking executable--
/home/qc/cfour_v2.1_intel_2017_eland2/bin/xvcc
 @GETMEM-I,  Allocated   30517 MB of main memory.
   CC3 energy will be calculated.
   The total correlation energy is -0.272038784687 a.u.
   The total correlation energy is -0.279634291041 a.u.
  Convergence information after     1 iterations: 
  Largest element of residual vector : -0.10416107E-01.
  Largest element of DIIS residual   : -0.10416107E-01.
   The total correlation energy is -0.284492084578 a.u.
  Convergence information after     2 iterations: 
  Largest element of residual vector : -0.16211434E-02.
  Largest element of DIIS residual   : -0.18118941E-02.
   The total correlation energy is -0.285414972965 a.u.
  Convergence information after     3 iterations: 
  Largest element of residual vector : -0.18679913E-02.
  Largest element of DIIS residual   : -0.11631696E-02.
   The total correlation energy is -0.285925439772 a.u.
  Convergence information after     4 iterations: 
  Largest element of residual vector : -0.25890230E-03.
  Largest element of DIIS residual   : -0.14146457E-03.
   The total correlation energy is -0.285963554395 a.u.
  Convergence information after     5 iterations: 
  Largest element of residual vector : -0.14877257E-03.
  Largest element of DIIS residual   :  0.76798078E-04.
   The total correlation energy is -0.285967282033 a.u.
  Convergence information after     6 iterations: 
  Largest element of residual vector :  0.37750515E-04.
  Largest element of DIIS residual   :  0.26891124E-04.
   The total correlation energy is -0.285966559182 a.u.
  Convergence information after     7 iterations: 
  Largest element of residual vector :  0.19604466E-04.
  Largest element of DIIS residual   :  0.11124462E-04.
   The total correlation energy is -0.285966492456 a.u.
  Convergence information after     8 iterations: 
  Largest element of residual vector :  0.54831899E-05.
  Largest element of DIIS residual   :  0.30536029E-05.
   The total correlation energy is -0.285966752341 a.u.
  Convergence information after     9 iterations: 
  Largest element of residual vector :  0.19672850E-05.
  Largest element of DIIS residual   :  0.15389822E-05.
   The total correlation energy is -0.285966778644 a.u.
  Convergence information after    10 iterations: 
  Largest element of residual vector :  0.63377751E-06.
  Largest element of DIIS residual   :  0.39501238E-06.
   The total correlation energy is -0.285966793630 a.u.
  Convergence information after    11 iterations: 
  Largest element of residual vector :  0.22053453E-06.
  Largest element of DIIS residual   :  0.96891503E-07.
   The total correlation energy is -0.285966796616 a.u.
  Convergence information after    12 iterations: 
  Largest element of residual vector :  0.62282838E-07.
  Largest element of DIIS residual   :  0.28836458E-07.
   The total correlation energy is -0.285966797271 a.u.
  Convergence information after    13 iterations: 
  Largest element of residual vector :  0.11592855E-07.
  Largest element of DIIS residual   :  0.96684284E-08.
   The total correlation energy is -0.285966797750 a.u.
  Convergence information after    14 iterations: 
  Largest element of residual vector :  0.80855860E-08.
  Largest element of DIIS residual   :  0.41800894E-08.
   The total correlation energy is -0.285966798024 a.u.
  Convergence information after    15 iterations: 
  Largest element of residual vector :  0.25640486E-08.
  Largest element of DIIS residual   :  0.15684964E-08.
   The total correlation energy is -0.285966798083 a.u.
  Convergence information after    16 iterations: 
  Largest element of residual vector :  0.11387091E-08.
  Largest element of DIIS residual   :  0.36320119E-09.
   The total correlation energy is -0.285966798107 a.u.
  Convergence information after    17 iterations: 
  Largest element of residual vector :  0.31523949E-09.
  Largest element of DIIS residual   :  0.12127656E-09.
  Amplitude equations converged in    17iterations.
   The total correlation energy is -0.285966798115 a.u.
   The CC iterations have converged.

   Largest T1 amplitudes for spin case AA:
   i       a                 i       a                 i       a    
-----------------------------------------------------------------------------
[  4      63    ]-0.01545 [  4      65    ]-0.01279 [  3       7    ] 0.00893
[  3      12    ] 0.00792 [  2      32    ]-0.00548 [  3       5    ] 0.00411
[  4      81    ]-0.00390 [  4      68    ] 0.00371 [  2      25    ]-0.00354
[  3      33    ]-0.00349 [  2      48    ] 0.00336 [  3      47    ]-0.00336
[  4      70    ] 0.00303 [  3      19    ] 0.00284 [  1      20    ]-0.00278
-----------------------------------------------------------------------------
   Norm of T1AA vector (      203 symmetry allowed elements):  0.0285250204.
-----------------------------------------------------------------------------
   Largest T2 amplitudes for spin case AB:
       _       _                 _       _                 _       _
   i   j   a   b             i   j   a   b             i   j   a   b
-----------------------------------------------------------------------------
[  2   2  15  15]-0.02504 [  3   3  20  20]-0.02081 [  4   4  71  71]-0.01731
[  4   4  70  70]-0.01594 [  2   2  25  15]-0.01572 [  2   2  15  25]-0.01572
[  2   2  15   9]-0.01513 [  2   2   9  15]-0.01513 [  2   2  16  16]-0.01498
[  4   4  63  63]-0.01478 [  4   4  71  70]-0.01477 [  4   4  70  71]-0.01477
[  3   3  16  16]-0.01413 [  3   2  20  15]-0.01398 [  2   3  15  20]-0.01398
-----------------------------------------------------------------------------
   Norm of T2AB vector (    62234 symmetry allowed elements):  0.2513760877.
-----------------------------------------------------------------------------
       Summary of iterative solution of CC equations 
      -----------------------------------------------------------
                       Correlation           Total
       Iteration         Energy              Energy
      -----------------------------------------------------------
            0        -0.272038784687     -76.324219454797  DIIS 
            1        -0.279634291041     -76.331814961151  DIIS 
            2        -0.284492084578     -76.336672754689  DIIS 
            3        -0.285414972965     -76.337595643076  DIIS 
            4        -0.285925439772     -76.338106109883  DIIS 
            5        -0.285963554395     -76.338144224505  DIIS 
            6        -0.285967282033     -76.338147952143  DIIS 
            7        -0.285966559182     -76.338147229293  DIIS 
            8        -0.285966492456     -76.338147162566  DIIS 
            9        -0.285966752341     -76.338147422452  DIIS 
           10        -0.285966778644     -76.338147448755  DIIS 
           11        -0.285966793630     -76.338147463741  DIIS 
           12        -0.285966796616     -76.338147466726  DIIS 
           13        -0.285966797271     -76.338147467382  DIIS 
           14        -0.285966797750     -76.338147467860  DIIS 
           15        -0.285966798024     -76.338147468134  DIIS 
           16        -0.285966798083     -76.338147468194  DIIS 
           17        -0.285966798115     -76.338147468225  DIIS 
      -----------------------------------------------------------
      A miracle has come to pass. The CC iterations have converged.
      The reference energy is       -76.05218067011066 a.u.
      The correlation energy is      -0.28596679811467 a.u.
      The total energy is           -76.33814746822533 a.u.
 @CHECKOUT-I, Total execution time (CPU/WALL):       51.90/      25.95 seconds.
--executable xvcc finished with status     0 in       25.98 seconds (walltime).
 --invoking executable--
/home/qc/cfour_v2.1_intel_2017_eland2/bin/xlambda
 @GETMEM-I,  Allocated   30517 MB of main memory.
 Hbar is calculated for a CCSD wave function.
 Calculation of Hbar completed.
 @CHECKOUT-I, Total execution time (CPU/WALL):        0.73/       0.39 seconds.
--executable xlambda finished with status     0 in        0.41 seconds (walltime).
 --invoking executable--
/home/qc/cfour_v2.1_intel_2017_eland2/bin/xvip
 @GETMEM-I,  Allocated   30517 MB of main memory.
 IPs are calculated using the EOMIP-CCSD method.
  Summary of active alpha molecular orbitals:
------------------------------------------------------------------------------
Orbital Symm. Eigenvalue  <xx>     <yy>     <zz>     <xy>     <xz>     <yz>
------------------------------------------------------------------------------
    1     1      -1.3263   0.000    0.000    0.000    0.000    0.000    0.000
    2     1      -0.6998   0.000    0.000    0.000    0.000    0.000    0.000
    3     1      -0.5661   0.000    0.000    0.000    0.000    0.000    0.000
    4     2      -0.5049   0.000    0.000    0.000    0.000    0.000    0.000
    5     1       0.0290   0.000    0.000    0.000    0.000    0.000    0.000
    6     1       0.0472   0.000    0.000    0.000    0.000    0.000    0.000
    7     1       0.1363   0.000    0.000    0.000    0.000    0.000    0.000
    8     1       0.1718   0.000    0.000    0.000    0.000    0.000    0.000
    9     1       0.1816   0.000    0.000    0.000    0.000    0.000    0.000
   10     1       0.2247   0.000    0.000    0.000    0.000    0.000    0.000
   11     1       0.2422   0.000    0.000    0.000    0.000    0.000    0.000
   12     1       0.3121   0.000    0.000    0.000    0.000    0.000    0.000
   13     1       0.3638   0.000    0.000    0.000    0.000    0.000    0.000
   14     1       0.4268   0.000    0.000    0.000    0.000    0.000    0.000
   15     1       0.4574   0.000    0.000    0.000    0.000    0.000    0.000
   16     1       0.6003   0.000    0.000    0.000    0.000    0.000    0.000
   17     1       0.6481   0.000    0.000    0.000    0.000    0.000    0.000
   18     1       0.7108   0.000    0.000    0.000    0.000    0.000    0.000
   19     1       0.8104   0.000    0.000    0.000    0.000    0.000    0.000
   20     1       0.9004   0.000    0.000    0.000    0.000    0.000    0.000
   21     1       0.9016   0.000    0.000    0.000    0.000    0.000    0.000
   22     1       0.9262   0.000    0.000    0.000    0.000    0.000    0.000
   23     1       0.9684   0.000    0.000    0.000    0.000    0.000    0.000
   24     1       1.0066   0.000    0.000    0.000    0.000    0.000    0.000
   25     1       1.0301   0.000    0.000    0.000    0.000    0.000    0.000
   26     1       1.1037   0.000    0.000    0.000    0.000    0.000    0.000
   27     1       1.1567   0.000    0.000    0.000    0.000    0.000    0.000
   28     1       1.2781   0.000    0.000    0.000    0.000    0.000    0.000
   29     1       1.5827   0.000    0.000    0.000    0.000    0.000    0.000
   30     1       1.7324   0.000    0.000    0.000    0.000    0.000    0.000
   31     1       1.8188   0.000    0.000    0.000    0.000    0.000    0.000
   32     1       1.9439   0.000    0.000    0.000    0.000    0.000    0.000
   33     1       2.0643   0.000    0.000    0.000    0.000    0.000    0.000
   34     1       2.3241   0.000    0.000    0.000    0.000    0.000    0.000
   35     1       2.3965   0.000    0.000    0.000    0.000    0.000    0.000
   36     1       2.4383   0.000    0.000    0.000    0.000    0.000    0.000
   37     1       2.4995   0.000    0.000    0.000    0.000    0.000    0.000
   38     1       2.7089   0.000    0.000    0.000    0.000    0.000    0.000
   39     1       2.7254   0.000    0.000    0.000    0.000    0.000    0.000
   40     1       2.8589   0.000    0.000    0.000    0.000    0.000    0.000
   41     1       3.5507   0.000    0.000    0.000    0.000    0.000    0.000
   42     1       3.6991   0.000    0.000    0.000    0.000    0.000    0.000
   43     1       4.1560   0.000    0.000    0.000    0.000    0.000    0.000
   44     1       4.1688   0.000    0.000    0.000    0.000    0.000    0.000
   45     1       4.4466   0.000    0.000    0.000    0.000    0.000    0.000
   46     1       4.4663   0.000    0.000    0.000    0.000    0.000    0.000
   47     1       4.6220   0.000    0.000    0.000    0.000    0.000    0.000
   48     1       4.6731   0.000    0.000    0.000    0.000    0.000    0.000
   49     1       4.9872   0.000    0.000    0.000    0.000    0.000    0.000
   50     1       5.1432   0.000    0.000    0.000    0.000    0.000    0.000
   51     1       5.2384   0.000    0.000    0.000    0.000    0.000    0.000
   52     1       5.6287   0.000    0.000    0.000    0.000    0.000    0.000
   53     1       6.0501   0.000    0.000    0.000    0.000    0.000    0.000
   54     1       6.5598   0.000    0.000    0.000    0.000    0.000    0.000
   55     1       6.7810   0.000    0.000    0.000    0.000    0.000    0.000
   56     1       7.2740   0.000    0.000    0.000    0.000    0.000    0.000
   57     1       7.2886   0.000    0.000    0.000    0.000    0.000    0.000
   58     1       7.4193   0.000    0.000    0.000    0.000    0.000    0.000
   59     1       7.7557   0.000    0.000    0.000    0.000    0.000    0.000
   60     1       7.8770   0.000    0.000    0.000    0.000    0.000    0.000
   61     1       8.5081   0.000    0.000    0.000    0.000    0.000    0.000
   62     1      14.4458   0.000    0.000    0.000    0.000    0.000    0.000
   63     2       0.1602   0.000    0.000    0.000    0.000    0.000    0.000
   64     2       0.2630   0.000    0.000    0.000    0.000    0.000    0.000
   65     2       0.3036   0.000    0.000    0.000    0.000    0.000    0.000
   66     2       0.7198   0.000    0.000    0.000    0.000    0.000    0.000
   67     2       0.7326   0.000    0.000    0.000    0.000    0.000    0.000
   68     2       0.8385   0.000    0.000    0.000    0.000    0.000    0.000
   69     2       0.9136   0.000    0.000    0.000    0.000    0.000    0.000
   70     2       0.9319   0.000    0.000    0.000    0.000    0.000    0.000
   71     2       1.0770   0.000    0.000    0.000    0.000    0.000    0.000
   72     2       1.1582   0.000    0.000    0.000    0.000    0.000    0.000
   73     2       1.4997   0.000    0.000    0.000    0.000    0.000    0.000
   74     2       1.5692   0.000    0.000    0.000    0.000    0.000    0.000
   75     2       2.2524   0.000    0.000    0.000    0.000    0.000    0.000
   76     2       2.3066   0.000    0.000    0.000    0.000    0.000    0.000
   77     2       2.3996   0.000    0.000    0.000    0.000    0.000    0.000
   78     2       2.7149   0.000    0.000    0.000    0.000    0.000    0.000
   79     2       2.8538   0.000    0.000    0.000    0.000    0.000    0.000
   80     2       3.9701   0.000    0.000    0.000    0.000    0.000    0.000
   81     2       4.0357   0.000    0.000    0.000    0.000    0.000    0.000
   82     2       4.2901   0.000    0.000    0.000    0.000    0.000    0.000
   83     2       4.3619   0.000    0.000    0.000    0.000    0.000    0.000
   84     2       4.3697   0.000    0.000    0.000    0.000    0.000    0.000
   85     2       5.0454   0.000    0.000    0.000    0.000    0.000    0.000
   86     2       5.3551   0.000    0.000    0.000    0.000    0.000    0.000
   87     2       6.6919   0.000    0.000    0.000    0.000    0.000    0.000
   88     2       7.0855   0.000    0.000    0.000    0.000    0.000    0.000
   89     2       7.1803   0.000    0.000    0.000    0.000    0.000    0.000
   90     2       7.2178   0.000    0.000    0.000    0.000    0.000    0.000
   91     2       7.3651   0.000    0.000    0.000    0.000    0.000    0.000
------------------------------------------------------------------------------
  nsizec is                    639
  @DOEOMIP2-I, right-hand eigenvectors will be computed.
  Beginning symmetry block   2.   1 roots requested.
  1   1  0.5844230531D+00  0.1590295977D+02  0.0000000000D+00  0.4599715033D+00
  2   2  0.5269722413D+00  0.1433964370D+02  0.9944707869D+00  0.8957500534D-01
  3   3  0.5061707394D+00  0.1377360605D+02  0.9967983924D+00  0.2174050502D-01
  4   4  0.5051774855D+00  0.1374657824D+02  0.9998674012D+00  0.4293393552D-02
  L-O-C-K-I-N-G O-N R-O-O-T 
  5   5  0.5050625302D+00  0.1374345015D+02  0.9999964435D+00  0.1036044742D-02
  6   6  0.5050564641D+00  0.1374328508D+02  0.9999997689D+00  0.1816882846D-03
  7   7  0.5050567153D+00  0.1374329192D+02  0.9999999908D+00  0.4948555690D-04
  8   8  0.5050562472D+00  0.1374327918D+02  0.9999999995D+00  0.9202012329D-05
  9   9  0.5050563057D+00  0.1374328077D+02  0.1000000000D+01  0.2205413330D-05
 10  10  0.5050562995D+00  0.1374328060D+02  0.1000000000D+01  0.4130588920D-06
 11  11  0.5050563014D+00  0.1374328066D+02  0.1000000000D+01  0.7765284699D-07
 12  12  0.5050563015D+00  0.1374328066D+02  0.1000000000D+01  0.1760575395D-07
 13  13  0.5050563015D+00  0.1374328066D+02  0.1000000000D+01  0.4601038820D-08
 14  14  0.5050563015D+00  0.1374328066D+02  0.1000000000D+01  0.6989558334D-09
 15  15  0.5050563015D+00  0.1374328066D+02  0.1000000000D+01  0.1484667787D-09
 16  16  0.5050563015D+00  0.1374328066D+02  0.1000000000D+01  0.2762921572D-10
  Converged eigenvalue:   0.505056301484687       a.u.
   Total EOMIP-CCSD electronic energy     -75.83309116674064 a.u.
          --------------------------------
             I    J    A       C(IJA)
          --------------------------------
              0    4    0   -0.6976806352
              4    4   63   -0.0372129094
              4    4   70    0.0315930053
              4    4   71    0.0278763817
              2    4   15    0.0275957144
              4    4   65   -0.0262140895
              3    4   20    0.0234678373
              3    4    7    0.0229593400
              2    4    9    0.0223078452
              3    4   12    0.0204575464
              1    4   14    0.0159061324
              4    4   68    0.0157429926
              2    4   25    0.0147897083
              1    4    8    0.0132578647
              3    4   14    0.0132099642
          --------------------------------

  Eigenvector is saved on CCRE_1_1  

  VIP all done  ! 
 @CHECKOUT-I, Total execution time (CPU/WALL):        0.28/       0.18 seconds.
--executable xvip finished with status     0 in        0.20 seconds (walltime).
  The final electronic energy is       -75.833091166740644 a.u. 
  This computation required                           32.66 seconds (walltime).
 
Timing info
54.616u 7.395s 0:32.67 189.7% 0+0k 0+985064io 12pf+0w
 
Scratch space info (BEFORE cleaning //scratch/mdavis)
 
Cleaning up ...
Filesystem      Size  Used Avail Use% Mounted on
/dev/sda9       785G  122G  624G  17% /scratch
 
Scratch space info (AFTER cleaning //scratch/mdavis)
Filesystem      Size  Used Avail Use% Mounted on
/dev/sda9       785G  122G  624G  17% /scratch
