 --invoking executable--
/home/qc/cfour_v2.1_intel_2017_eland2/bin/xjoda


   *************************************************************************
         <<<     CCCCCC     CCCCCC   |||     CCCCCC     CCCCCC   >>>
       <<<      CCC        CCC       |||    CCC        CCC         >>>
      <<<      CCC        CCC        |||   CCC        CCC            >>>
    <<<        CCC        CCC        |||   CCC        CCC              >>>
      <<<      CCC        CCC        |||   CCC        CCC            >>>
       <<<      CCC        CCC       |||    CCC        CCC         >>>
         <<<     CCCCCC     CCCCCC   |||     CCCCCC     CCCCCC   >>>
   *************************************************************************

     ****************************************************************
     * CFOUR Coupled-Cluster techniques for Computational Chemistry *
     ****************************************************************
 

   Department of Chemistry                Institut fuer Physikalische Chemie
   University of Florida                  Universitaet Mainz
   Gainesville, FL 32611, USA             D-55099 Mainz, Germany

   Department of Chemistry                Fakultaet fuer Chemie und Biowiss.
   Johns Hopkins University               Karlsruher Institut fuer Technologie
   Baltimore, MD 21218, USA               D-76131 Karlsruhe, Germany

   Department of Chemistry                Department of Physical Chemistry
   Southern Methodist University          Eotvos Lorand University
   Dallas, TX 75275, USA                  H-1053 Budapest, Hungary

 
                       Version 2.1
 
                     node4                                             
                     Fri 04 Nov 2022 09:27:08 AM CDT                   
                     integer*8 version is running
 
********************************************************************************
*                          Input from ZMAT file                                *
********************************************************************************
h2o AUG-PVTZ CC3                                                                
H        0.0000000000       -1.5269901487       -0.9633077721                   
O        0.0000000000       -0.0093518597        0.1169679445                   
H        0.0000000000        1.5363420084       -0.9699243624                   
                                                                                
                                                                                
                                                                                
*CFOUR(CALC=CC3,BASIS=AUG-PVTZ,COORDINATES=CARTESIAN,UNITS=BOHR                 
CC_CONV=9                                                                       
LINEQ_CONV=12                                                                   
SCF_CONV=9                                                                      
ESTATE_CONV=10                                                                  
CHARGE=0                                                                        
MULTIPLICITY=1                                                                  
FROZEN_CORE=ON                                                                  
RELATIVISTIC=OFF                                                                
REFERENCE=RHF                                                                   
EXCITE=EOMIP                                                                    
ESTATE_SYM=0/1                                                                  
MEM_UNIT=GB,MEMORY_SIZE=32)                                                     
                                                                                
H:APVTZ-X2C                                                                     
O:APVTZ-X2C                                                                     
H:APVTZ-X2C                                                                     
                                                                                
********************************************************************************
    -------------------------------------------------------------------
                    CFOUR Control Parameters 
    -------------------------------------------------------------------
        External           Internal           Value            Units
          Name               Name
    -------------------------------------------------------------------
       ABCDTYPE             IABCDT         STANDARD    [  0]    ***   
       ANHARMONIC           IANHAR         OFF         [  0]    ***   
       ANH_ALGORIT          IANALG         STANDARD    [  0]    ***   
       ANH_DERIVAT          IANDER         SECOND      [  1]    ***   
       ANH_MODE             ANHMOD         VIBRATION   [  0]    ***   
       ANH_STEPSIZ          ICUBST             50000          x 10-6  
       ANH_SYMMETR          IANHSM         ABELIAN     [  0]    ***   
       AO_LADDERS           IAOLAD         SINGLEPASS  [  1]    ***   
       AV_SCF               IAVSCF         OFF         [  0]    ***   
       BASIS                IBASIS         AUG-PVTZ    [ 34]    ***   
       BOTHVECTORS          BOTHVC         OFF         [  0]    ***   
       BOX_POTENT           IPIAB          OFF         [  0]    ***   
       BREIT                IBREIT         OFF         [  0]    ***   
       BRUCK_CONV           IBRTOL          10D-  4             ***   
       BRUECKNER            IBRKNR         OFF         [  0]    ***   
       BUFFERSIZE           IBUFFS              4096            ***   
       CACHE_RECS           ICHREC             10               ***   
       CALCLEVEL            ICLLVL         CC3         [ 32]    ***   
       CCORBOPT             ICCORB         OFF         [  0]  x 0.01  
       CC_CONV              ICCCNV          10D-  9             ***   
       CC_EXPORDER          ICCEOR              5               ***   
       CC_EXTRAPOL          ICCEXT         DIIS        [  1]    ***   
       CC_GUESS             ICCGES         MP2         [  0]    ***   
       CC_MAXCYC            ICCCYC            100              cycles 
       CC_PROGRAM           ICCPRO         VCC         [  0]    ***   
       CHARGE               ICHRGE              0               ***   
       CHOLESKY             ICHOLE         OFF         [  0]    ***   
       CIS_CONV             ICISTL              5               ***   
       COMM_SIZE            IPSIZE            ***               ***   
       CONSTANT             ICONST         OLD         [  1]    ***   
       CONTINUUM            ICONTU         NONE        [  0]    ***   
       CONTRACTION          ICNTYP         GENERAL     [  1]    ***   
       COORDINATES          ICOORD         CARTESIAN   [  1]    ***   
       CPHF_CONVER          ICPHFT          10D- 16             ***   
       CPHF_MAXCYC          ICPHFC             64              cycles 
       CUBIC                ICUBIC         OFF         [  0]    ***   
       CURVILINEAR          ICURVY         OFF         [  0]    ***   
       DBOC                 IDBOC          OFF         [  0]    ***   
       DCT                  IDCT           OFF         [  0]    ***   
       DERIV_LEV            IDRLVL         ZERO        [  0]    ***   
       DEVMEM_SIZE          IDVMEM         *********           MByte  
       DIAG_MRCC            IEOMST          10D-  0             ***   
       DIFF_TYPE            IDIFTY         RELAXED     [  0]    ***   
       DIRECT               IDIRCT         OFF         [  0]    ***   
       DROPMO               IDRPMO      NONE         
       ECP                  IECP           OFF         [  0]    ***   
       EIGENVECTOR          IVEC                1               ***   
       EL_ANHARM            IELANH         OFF         [  0]    ***   
       EOMFOLLOW            IEOMSR         ENERGY      [  0]    ***   
       EOMIP                IEOMIP         OFF         [  0]    ***   
       EOMLEVEL             HBARFM         SAME        [  0]    ***   
       EOM_MRCC             IMRCCE         NEW         [  1]    ***   
       EOM_NONIT            EOMNON         OFF         [  0]    ***   
       EOM_NSING            IEOMSI          10D-  0             ***   
       EOM_NSTATES          IMRCCD         DAVIDSON    [  0]    ***   
       EOM_NTRIP            IEOMTR          10D-  0             ***   
       EOM_ORDER            IEXORD         ENERGY      [  0]    ***   
       EOM_PROPSTA          IEOMST              0               ***   
       ESTATE_CONV          IEXTOL          10D- 10             ***   
       ESTATE_DIAG          IEXDIG         ITERATIVE   [  0]    ***   
       ESTATE_LOCK          IESLOC         ON          [  1]    ***   
       ESTATE_MAXC          IEXMXC             40               ***   
       ESTATE_PROP          IEXPRP         OFF         [  0]    ***   
       ESTATE_SYM           IEXSYM   0,  1,
       EVAL_HESS            IRECAL              0            # of cyc.
       EXCITATION           IEXCIT              0               ***   
       EXCITE               IEXCIT         EOMIP       [  4]    ***   
       EXTERN_POT           IEXPOT         OFF         [  0]    ***   
       FCGRADNEW            IFCGNW         OFF         [  0]    ***   
       FC_FIELD             IFINFC              0             x 10-6  
       FD_CALTYPE           IFDCAL         GRADONLY    [  0]    ***   
       FD_PROJECT           IFDPRJ         OFF         [  1]    ***   
       FD_STEPSIZE          IDISFD              0            10-4 bohr
       FD_USEGROUP          IFDGRP         FULL        [  0]    ***   
       FILE_RECSIZ          IFLREC              4096           words  
       FINITE_PERT          IFIPER              0             x 10-6  
       FIXGEOM              IFIXGM         OFF         [  0]    ***   
       FOCK                 IFOCK          AO          [  1]    ***   
       FREQ_ALGORI          IVIALG         STANDARD    [  0]    ***   
       FROZEN_CORE          IFROCO         ON          [  1]    ***   
       GAMMA_ABCD           IGABCD         STORE       [  0]    ***   
       GAMMA_ABCI           IGABCI         STORE       [  0]    ***   
       GENBAS_1             IGNBS1              0               ***   
       GENBAS_2             IGNBS2              0               ***   
       GENBAS_3             IGNBS3              0               ***   
       GENBAS_4             IGNBS4              0               ***   
       GEO_CONV             ICONTL              5              H/bohr 
       GEO_MAXCYC           IOPTCY             50               ***   
       GEO_MAXSTEP          IMXSTP            300            millibohr
       GEO_METHOD           INR            SINGLE_POINT[  5]    ***   
       GIAO                 IGIAO          OFF         [  1]    ***   
       GIMIC                IGIMIC         OFF         [  0]    ***   
       GRID                 IGRID          OFF         [  0]    ***   
       GRID_ALGO            IGALGO         SERIAL      [  0]    ***   
       GUESS                IGUESS         MOREAD      [  0]    ***   
       HBAR                 IHBAR          ON          [  1]    ***   
       HESS_TYPE            IHESTP         SCF         [  0]    ***   
       HF2_FILE             IHF2Fl         USE         [  1]    ***   
       HFSTABILITY          ISTABL         OFF         [  0]    ***   
       INCORE               INCORE         OFF         [  0]    ***   
       INPUT_MRCC           IMRCC          ON          [  1]    ***   
       INTEGRALS            INTTYP         VMOL        [  1]    ***   
       JODA_PRINT           IJPRNT              0               ***   
       KEYWORD_OUT          IDMPKW         NO          [  0]    ***   
       LINDEP_TOL           ILINDP              8               ***   
       LINEQ_CONV           IZTACN          10D- 12           cycles  
       LINEQ_EXPOR          ILMAXD              5               ***   
       LINEQ_MAXCY          ILMAXC            100               ***   
       LINEQ_TYPE           ILTYPE         DIIS        [  1]    ***   
       LOCK_ORBOCC          ILOCOC         OFF         [  0]    ***   
       MEMORY_SIZE          IMEMSZ         *********           words  
       MEM_UNIT             IMEMU          GB          [  3]    ***   
       MRCC                 IMRCCC         OFF         [  0]    ***   
       MULTIPLICTY          IMULTP              1               ***   
       NACOUPLING           IVCOUP         OFF         [  0]    ***   
       NEGEVAL              IDIE           ABORT       [  0]    ***   
       NEWNORM              INEWNO         OFF         [  0]    ***   
       NON-HF               INONHF         OFF         [  0]    ***   
       NTOP_TAMP            ITOPT2             15               ***   
       NUC_MODEL            INUCMO         POINT       [  0]    ***   
       OCCUPATION           IOCCU   ESTIMATED BY SCF 
       OPEN-SHELL           IOPEN          SPIN-ORBITAL[  0]    ***   
       OPTVIB               IOPTVB         OFF         [  0]    ***   
       ORBITALS             IORBTP         STANDARD    [  0]    ***   
       PARALLEL             IPARAL         ON          [  1]    ***   
       PARA_INT             IPINTS         ON          [  1]    ***   
       PARA_PRINT           IPPRIN              0               ***   
       PERT_ORB             IPTORB         STANDARD    [  0]    ***   
       POINTS               IGRDFD              0               ***   
       PRINT                IPRNT               0               ***   
       PROPS                IPROPS         OFF         [  0]    ***   
       PROP_INTEGR          IINTYP         INTERNAL    [  0]    ***   
       PSI                  IPSI           OFF         [  0]    ***   
       QC_ALG               IQCALG         FLM         [  0]    ***   
       QC_LINALG            IQCLIN         TRIDIAG     [  2]    ***   
       QC_MAXCYC            IQCMAX          10D-100           cycles  
       QC_MAXSCFCY          IQCMSC          10D- 15           cycles  
       QC_RTRUST            IQCRTR          10D-  0           x 10-3  
       QC_SKIPSCF           IQCSKI         OFF         [  0]    ***   
       QC_START             IQCSTA          10D-  1             ***   
       QRHFGUESS            IQGUES         OFF         [  0]    ***   
       QUARTIC              IQUART         OFF         [  0]    ***   
       RAMAN_INT            IRAMIN         OFF         [  0]    ***   
       RAMAN_ORB            IRAMRE         UNRELAXED   [  0]    ***   
       RDO                  IRDOFM         OFF         [  0]    ***   
       REDUCE_REPR          REDREP         Ir          [  0]    ***   
       REFERENCE            IREFNC         RHF         [  0]    ***   
       RELATIVIST           IRELAT         OFF         [  0]    ***   
       RELAX_DENS           IRDENS         OFF         [  0]    ***   
       RESET_FLAGS          IRESET         OFF         [  0]    ***   
       RESTART_CC           ICCRES         OFF         [  0]    ***   
       ROT_EVEC             ROTVEC              0               ***   
       SAVE_INTS            ISVINT         OFF         [  0]    ***   
       SCALE_ON             ISTCRT              0               ***   
       SCF_CONV             ISCFCV          10D-  9             ***   
       SCF_DAMPING          IDAMP               0             x 10-3  
       SCF_EXPORDE          IRPPOR              6               ***   
       SCF_EXPSTAR          IRPPLS              8               ***   
       SCF_EXTRAPO          IRPP           ON          [  1]    ***   
       SCF_MAXCYC           ISCFCY            150              cycles 
       SCF_NOSTOP           ISCFST         OFF         [  0]    ***   
       SCF_PRINT            ISCFPR              0               ***   
       SCF_PROG             ISCFPR         SCF         [  0]    ***   
       SD_FIELD             IFINSD              0             x 10-6  
       SOPERT               IPERSO         OFF         [  0]    ***   
       SPHERICAL            IDFGHI         ON          [  1]    ***   
       SPINORBIT            ISOCAL         OFF         [  0]    ***   
       SPINROTATIO          ISRCON         OFF         [  0]    ***   
       SPIN_FLIP            ISPFLP         OFF         [  0]    ***   
       SPIN_ORBIT           ISPORB         OFF         [  0]    ***   
       SPIN_SCAL            ISCSMP         OFF         [  0]    ***   
       STEEPSCALE           ISTPSC              1000          x 10-3  
       SUBGROUP             ISUBGP         DEFAULT     [  0]    ***   
       SUBGRPAXIS           ISBXYZ         X           [  0]    ***   
       SYMMETRY             ISYM           ON          [  0]    ***   
       SYM_CHECK            ISYMCK         OVERRIDE    [  1]    ***   
       T3_EXTRAPOL          IT3EXT         OFF         [  0]    ***   
       T4_EXTRAPOL          IT4EXP         OFF         [  0]    ***   
       TAMP_SUM             IEVERY              5               ***   
       TESTSUITE            ITESTS         OFF         [  0]    ***   
       THERMOCH             ITHERM         OFF         [  0]    ***   
       TOL_CHOLESK          ITOLCH          10D-  4             ***   
       TRANGRAD             IRESRM         OFF         [  0]    ***   
       TRANS_INV            ITRAIN         USE         [  0]    ***   
       TREAT_PERT           ITREAT         SIMULTANEOUS[  0]    ***   
       TRIP_ALGORI          ITRALG         NORMAL      [  0]    ***   
       UIJ_THRESHO          IUIJTH              1               ***   
       UNITS                IUNITS         BOHR        [  1]    ***   
       UNOS                 IUNOS          OFF         [  0]    ***   
       UPDATE_HESS          IHUPDT         ON          [  1]    ***   
       VIBPHASE             ISETPH         STANDARD    [  0]    ***   
       VIBRATION            IVIB           NO          [  0]    ***   
       VIB_ALGORIT          IGEALG         STANDARD    [  0]    ***   
       VNATORB              IVNORB         OFF         [  0]    ***   
       VTRAN                IVTRAN         FULL/PARTIAL[  0]    ***   
       XFIELD               IXEFLD              0             x 10-6  
       XFORM_TOL            IXFTOL          10D- 11             ***   
       YFIELD               IYEFLD              0             x 10-6  
       ZFIELD               IZEFLD              0             x 10-6  
       ZSCALE_EXP           IZEXPS         OFF         [  0]    ***   
    -------------------------------------------------------------------
  @GETXYZ-I,     3 atoms read from ZMAT.
   Rotational constants (in cm-1): 
          8.8128425283            12.7282838828            28.6487145022
   Rotational constants (in MHz): 
     264202.4093663293        381584.4045920055        858866.9742407952
********************************************************************************
   The full molecular point group is C s .
   The largest Abelian subgroup of the full molecular point group is C s .
   The computational point group is C s .
********************************************************************************


 ----------------------------------------------------------------
         Coordinates used in calculation (QCOMP) 
 ----------------------------------------------------------------
 Z-matrix   Atomic            Coordinates (in bohr)
  Symbol    Number           X              Y              Z
 ----------------------------------------------------------------
     H         1        -1.50539787    -0.98054291     0.00000000
     O         8        -0.00329664     0.12123452     0.00000000
     H         1         1.55771791    -0.94353683     0.00000000
 ----------------------------------------------------------------
 
   Interatomic distance matrix (Angstroms) 
 
                 H             O             H    
                [ 1]        [ 2]        [ 3]
  H    [ 1]     0.00000
  O    [ 2]     0.98578     0.00000
  H    [ 3]     1.62105     0.99992     0.00000
 rotcon2
   Rotational constants (in cm-1): 
         28.6487145022            12.7282838828             8.8128425283
   Rotational constants (in MHz): 
     858866.9742407950        381584.4045920055        264202.4093663293
  There is   1 frozen-core orbital.
  There are   92 basis functions.
 @GEOPT-W, Archive file not created for single-point calculation.
 @CHECKOUT-I, Total execution time (CPU/WALL):        0.14/       0.20 seconds.
--executable xjoda finished with status     0 in        0.23 seconds (walltime).
 --invoking executable--
/home/qc/cfour_v2.1_intel_2017_eland2/bin/xvmol
 SERIAL VERSION OF MOLECULE STARTED
********************************************************************************
                    INPUT FROM MOL FILE
********************************************************************************
INTGRL        1    0    1    0    0    0    0    0    0                         
         *** CFOUR Program System (Release V0.1) ***                            
h2o AUG-PVTZ CC3                                                                
    3    1 Z          0.10E-08              0    0                              
   9999.00      3.00                                                            
          1.00000000    1    3    1    1    1                                   
H #1  -1.505397866862102  -0.980542911137691   0.000000000000000                
    6    4                                                                      
   33.8700000000000       6.068000000000000E-003  0.000000000000000E+000        
  0.000000000000000E+000  0.000000000000000E+000                                
   5.09500000000000       4.530800000000000E-002  0.000000000000000E+000        
  0.000000000000000E+000  0.000000000000000E+000                                
   1.15900000000000       0.202822000000000       0.000000000000000E+000        
  0.000000000000000E+000  0.000000000000000E+000                                
  0.325800000000000       0.503903000000000        1.00000000000000             
  0.000000000000000E+000  0.000000000000000E+000                                
  0.102700000000000       0.383421000000000       0.000000000000000E+000        
   1.00000000000000       0.000000000000000E+000                                
  2.526000000000000E-002  0.000000000000000E+000  0.000000000000000E+000        
  0.000000000000000E+000   1.00000000000000                                     
    3    3                                                                      
   1.40700000000000        1.00000000000000       0.000000000000000E+000        
  0.000000000000000E+000                                                        
  0.388000000000000       0.000000000000000E+000   1.00000000000000             
  0.000000000000000E+000                                                        
  0.102000000000000       0.000000000000000E+000  0.000000000000000E+000        
   1.00000000000000                                                             
    2    2                                                                      
   1.05700000000000        1.00000000000000       0.000000000000000E+000        
  0.247000000000000       0.000000000000000E+000   1.00000000000000             
          8.00000000    1    4    1    1    1    1                              
O #2  -0.003296638076468   0.121234515838911   0.000000000000000                
   11    5                                                                      
   15330.0000000000       5.080000000000000E-004 -1.150000000000000E-004        
  0.000000000000000E+000  0.000000000000000E+000  0.000000000000000E+000        
   2299.00000000000       3.929000000000000E-003 -8.950000000000000E-004        
  0.000000000000000E+000  0.000000000000000E+000  0.000000000000000E+000        
   522.400000000000       2.024300000000000E-002 -4.636000000000000E-003        
  0.000000000000000E+000  0.000000000000000E+000  0.000000000000000E+000        
   147.300000000000       7.918100000000000E-002 -1.872400000000000E-002        
  0.000000000000000E+000  0.000000000000000E+000  0.000000000000000E+000        
   47.5500000000000       0.230687000000000      -5.846300000000000E-002        
  0.000000000000000E+000  0.000000000000000E+000  0.000000000000000E+000        
   16.7600000000000       0.433118000000000      -0.136463000000000             
  0.000000000000000E+000  0.000000000000000E+000  0.000000000000000E+000        
   6.20700000000000       0.350260000000000      -0.175740000000000             
  0.000000000000000E+000  0.000000000000000E+000  0.000000000000000E+000        
   1.75200000000000       4.272800000000000E-002  0.160934000000000             
   1.00000000000000       0.000000000000000E+000  0.000000000000000E+000        
  0.688200000000000      -8.154000000000000E-003  0.603418000000000             
  0.000000000000000E+000  0.000000000000000E+000  0.000000000000000E+000        
  0.238400000000000       2.381000000000000E-003  0.378765000000000             
  0.000000000000000E+000   1.00000000000000       0.000000000000000E+000        
  7.376000000000001E-002  0.000000000000000E+000  0.000000000000000E+000        
  0.000000000000000E+000  0.000000000000000E+000   1.00000000000000             
    6    4                                                                      
   34.4600000000000       1.592800000000000E-002  0.000000000000000E+000        
  0.000000000000000E+000  0.000000000000000E+000                                
   7.74900000000000       9.974000000000000E-002  0.000000000000000E+000        
  0.000000000000000E+000  0.000000000000000E+000                                
   2.28000000000000       0.310492000000000       0.000000000000000E+000        
  0.000000000000000E+000  0.000000000000000E+000                                
  0.715600000000000       0.491026000000000        1.00000000000000             
  0.000000000000000E+000  0.000000000000000E+000                                
  0.214000000000000       0.336337000000000       0.000000000000000E+000        
   1.00000000000000       0.000000000000000E+000                                
  5.974000000000000E-002  0.000000000000000E+000  0.000000000000000E+000        
  0.000000000000000E+000   1.00000000000000                                     
    3    3                                                                      
   2.31400000000000        1.00000000000000       0.000000000000000E+000        
  0.000000000000000E+000                                                        
  0.645000000000000       0.000000000000000E+000   1.00000000000000             
  0.000000000000000E+000                                                        
  0.214000000000000       0.000000000000000E+000  0.000000000000000E+000        
   1.00000000000000                                                             
    2    2                                                                      
   1.42800000000000        1.00000000000000       0.000000000000000E+000        
  0.500000000000000       0.000000000000000E+000   1.00000000000000             
          1.00000000    1    3    1    1    1                                   
H #3   1.557717905329017  -0.943536828608762   0.000000000000000                
    6    4                                                                      
   33.8700000000000       6.068000000000000E-003  0.000000000000000E+000        
  0.000000000000000E+000  0.000000000000000E+000                                
   5.09500000000000       4.530800000000000E-002  0.000000000000000E+000        
  0.000000000000000E+000  0.000000000000000E+000                                
   1.15900000000000       0.202822000000000       0.000000000000000E+000        
  0.000000000000000E+000  0.000000000000000E+000                                
  0.325800000000000       0.503903000000000        1.00000000000000             
  0.000000000000000E+000  0.000000000000000E+000                                
  0.102700000000000       0.383421000000000       0.000000000000000E+000        
   1.00000000000000       0.000000000000000E+000                                
  2.526000000000000E-002  0.000000000000000E+000  0.000000000000000E+000        
  0.000000000000000E+000   1.00000000000000                                     
    3    3                                                                      
   1.40700000000000        1.00000000000000       0.000000000000000E+000        
  0.000000000000000E+000                                                        
  0.388000000000000       0.000000000000000E+000   1.00000000000000             
  0.000000000000000E+000                                                        
  0.102000000000000       0.000000000000000E+000  0.000000000000000E+000        
   1.00000000000000                                                             
    2    2                                                                      
   1.05700000000000        1.00000000000000       0.000000000000000E+000        
  0.247000000000000       0.000000000000000E+000   1.00000000000000             
FINISH                                                                          
 
********************************************************************************
 ONE- AND TWO-ELECTRON INTEGRALS OVER SYMMETRY-ADAPTED AOS ARE CALCULATED.

  SPHERICAL HARMONICS ARE USED.
  
  INTEGRALS LESS THAN  0.10E-13 ARE NEGLECTED.

  NUCLEAR REPULSION ENERGY :    8.8546789411 A.U.
  @MOLECU-I, ONE ELECTRON INTEGRALS (CPU/WALL):        0.03/       0.03 SECONDS.
  @TWOEL-I,    1908019 INTEGRALS OF SYMMETRY TYPE  I I I I
  @TWOEL-I,    1629646 INTEGRALS OF SYMMETRY TYPE  I J I J
  @TWOEL-I,     852741 INTEGRALS OF SYMMETRY TYPE  I I J J
  @TWOEL-I, TOTAL NUMBER OF 2-E INTEGRALS    4390406.
  @MOLECU-I, TWO ELECTRON INTEGRALS (CPU/WALL):        1.57/       1.57 SECONDS.
 @CHECKOUT-I, Total execution time (CPU/WALL):        1.60/       1.60 seconds.

OMP_NUM_THREADS not specified; defaulting to 1
Running with 1 threads/proc

--executable xvmol finished with status     0 in        1.64 seconds (walltime).
 --invoking executable--
/home/qc/cfour_v2.1_intel_2017_eland2/bin/xvmol2ja
 @GETMEM-I,  Allocated   30517 MB of main memory.
 @CHECKOUT-I, Total execution time (CPU/WALL):        0.02/       0.03 seconds.
--executable xvmol2ja finished with status     0 in        0.06 seconds (walltime).
 --invoking executable--
/home/qc/cfour_v2.1_intel_2017_eland2/bin/xvscf
  There are   92 functions in the AO basis.

  There are 2 irreducible representations.

       Irrep        # of functions
         1                 62
         2                 30


  Parameters for SCF calculation: 
        SCF reference function:  RHF  
  Maximum number of iterations:  150
     Full symmetry point group: C s 
     Computational point group: C s 
        Initial density matrix: MOREAD                 
     SCF convergence tolerance: 10**(- 9)
  DIIS convergence acceleration:  ON
          Latest start for DIIS:   8
                     DIIS order:   6

  Memory information:     429020 words required.
  Fock matrices are constructed from AO integral file.
 @GETMEM-I,  Allocated       3 MB of main memory.
  Initialization and symmetry analysis required      0.001 seconds.

  @INITGES-I, Occupancies from core Hamiltonian:

          Alpha population by irrep:   4    1
           Beta population by irrep:   4    1


 total no. of electrons in initial guess :  0.000000000000000E+000
  --------------------------------------------------------------------
  Iteration         Total Energy            Largest Density Difference
  --------------------------------------------------------------------
       0             8.854678941093256              0.0000000000D+00
   current occupation vector 
     4  1
     4  1
       1           -61.255445827605172              0.1230146946D+02
   current occupation vector 
     4  1
     4  1
       2           -63.682954145810285              0.3196373888D+02
   current occupation vector 
     5  0
     5  0
       3           -70.807945907218013              0.3196391750D+02
   current occupation vector 
     4  1
     4  1
       4           -67.806763740650638              0.2689214452D+02
   current occupation vector 
     5  0
     5  0
       5           -72.177078589218198              0.2689172023D+02
   current occupation vector 
     4  1
     4  1
       6           -68.778866144264072              0.2521226531D+02
   current occupation vector 
     5  0
     5  0
       7           -72.548607797230190              0.2521242331D+02
   current occupation vector 
     4  1
     4  1
       8           -69.044160512026650              0.2478347232D+02
   current occupation vector 
     5  0
     5  0
       9           -75.771198438703280              0.2478423582D+02
   current occupation vector 
     4  1
     4  1
      10           -76.045331958865020              0.5208433952D+00
   current occupation vector 
     4  1
     4  1
      11           -76.055142611814659              0.8632008840D-01
   current occupation vector 
     4  1
     4  1
      12           -76.055265487413806              0.1149521365D-01
   current occupation vector 
     4  1
     4  1
      13           -76.055276728756184              0.3821053629D-02
   current occupation vector 
     4  1
     4  1
      14           -76.055278570970970              0.2264357991D-02
   current occupation vector 
     4  1
     4  1
      15           -76.055278605174109              0.3426958464D-03
   current occupation vector 
     4  1
     4  1
      16           -76.055278605774774              0.3004498492D-04
   current occupation vector 
     4  1
     4  1
      17           -76.055278605846027              0.1537930723D-04
   current occupation vector 
     4  1
     4  1
      18           -76.055278605847491              0.3021626716D-05
   current occupation vector 
     4  1
     4  1
      19           -76.055278605847974              0.3233666301D-06
   current occupation vector 
     4  1
     4  1
      20           -76.055278605848159              0.6485812309D-07
   current occupation vector 
     4  1
     4  1
      21           -76.055278605848116              0.1206505695D-07
   current occupation vector 
     4  1
     4  1
      22           -76.055278605848130              0.3450075309D-08
   current occupation vector 
     4  1
     4  1
      23           -76.055278605847647              0.1125833871D-08
   current occupation vector 
     4  1
     4  1

  SCF has converged.

 Density matrix saved to file den.dat
 total electron number:  10.00000000000000     
     E(SCF)=       -76.055278605847960              0.2801189281D-09

  Eigenvector printing suppressed.

 @PUTMOS-I, Writing converged MOs to NEWMOS. 
 @PUTMOS-I, Symmetry   1 Full Blocks 15 Partial Blocksize   2
 @PUTMOS-I, Symmetry   2 Full Blocks  7 Partial Blocksize   2
 @PUTFOCK-I, Writing converged Fock matrix to NEWFOCK. 
 @PUTFOCK-I, Symmetry   1 Full Blocks 15 Partial Blocksize   2
 @PUTFOCK-I, Symmetry   2 Full Blocks  7 Partial Blocksize   2


 
  ORBITAL EIGENVALUES (ALPHA)  (1H = 27.2113834 eV)

       MO #        E(hartree)               E(eV)           FULLSYM    COMPSYM
       ----   --------------------   --------------------   -------   ---------
    1     1         -20.5709317764        -559.7635114634     A'        A'  (1)
    2     2          -1.3327798130         -36.2667824802     A'        A'  (1)
    3     3          -0.7073640546         -19.2483544942     A'        A'  (1)
    4     4          -0.5687023369         -15.4751773288     A'        A'  (1)
    5    63          -0.5059701920         -13.7681488845     A''       A'' (2)
  +++++++++++++++++++++++++++++++++++++++++++++++++++++++++++++++++++++++++++++
    6     5           0.0292499940           0.7959328020     A'        A'  (1)
    7     6           0.0472224125           1.2849871711     A'        A'  (1)
    8     7           0.1364202151           3.7121827762     A'        A'  (1)
    9    64           0.1595098486           4.3404836467     A''       A'' (2)
   10     8           0.1725005853           4.6939795641     A'        A'  (1)
   11     9           0.1817505418           4.9456836751     A'        A'  (1)
   12    10           0.2260322670           6.1506506769     A'        A'  (1)
   13    11           0.2427740773           6.6062184961     A'        A'  (1)
   14    65           0.2631072319           7.1595117633     A''       A'' (2)
   15    66           0.3041823110           8.2772214889     A''       A'' (2)
   16    12           0.3126091403           8.5065271709     A'        A'  (1)
   17    13           0.3641630831           9.9093812752     A'        A'  (1)
   18    14           0.4298297630          11.6962624785     A'        A'  (1)
   19    15           0.4602929617          12.5252082578     A'        A'  (1)
   20    16           0.6009498351          16.3526763670     A'        A'  (1)
   21    17           0.6494518646          17.6724836877     A'        A'  (1)
   22    18           0.7110058527          19.3474528574     A'        A'  (1)
   23    67           0.7192429130          19.5715946622     A''       A'' (2)
   24    68           0.7320754010          19.9207844137     A''       A'' (2)
   25    19           0.8151845561          22.1822994991     A'        A'  (1)
   26    69           0.8396984908          22.8493575749     A''       A'' (2)
   27    20           0.8970970744          24.4112524382     A'        A'  (1)
   28    21           0.9049103259          24.6238618217     A'        A'  (1)
   29    70           0.9153793352          24.9087380456     A''       A'' (2)
   30    22           0.9261820774          25.2026956072     A'        A'  (1)
   31    71           0.9299727856          25.3058460210     A''       A'' (2)
   32    23           0.9700047483          26.3951711066     A'        A'  (1)
   33    24           1.0104299383          27.4951964509     A'        A'  (1)
   34    25           1.0341292675          28.1400879822     A'        A'  (1)
   35    72           1.0797534906          29.3815862095     A''       A'' (2)
   36    26           1.1071654588          30.1275037878     A'        A'  (1)
   37    73           1.1620484833          31.6209468079     A''       A'' (2)
   38    27           1.1623316299          31.6286516192     A'        A'  (1)
   39    28           1.2727784928          34.6340635516     A'        A'  (1)
   40    74           1.5043415473          40.9352146083     A''       A'' (2)
   41    75           1.5772720611          42.9197547794     A''       A'' (2)
   42    29           1.5792237093          42.9728618284     A'        A'  (1)
   43    30           1.7446111020          47.4732815815     A'        A'  (1)
   44    31           1.8123850764          49.3175051826     A'        A'  (1)
   45    32           1.9613580870          53.3712668903     A'        A'  (1)
   46    33           2.0798637000          56.5959685602     A'        A'  (1)
   47    76           2.2540661725          61.3362588281     A''       A'' (2)
   48    77           2.3099709177          62.8575042840     A''       A'' (2)
   49    34           2.3239235175          63.2371738273     A'        A'  (1)
   50    35           2.4004454856          65.3194424391     A'        A'  (1)
   51    78           2.4025178739          65.3758349918     A''       A'' (2)
   52    36           2.4382361752          66.3477793826     A'        A'  (1)
   53    37           2.4861649634          67.6519880138     A'        A'  (1)
   54    79           2.7129743666          73.8237856426     A''       A'' (2)
   55    38           2.7147848459          73.8730512893     A'        A'  (1)
   56    39           2.7256216655          74.1679361434     A'        A'  (1)
   57    40           2.8610930740          77.8543005805     A'        A'  (1)
   58    80           2.8620341099          77.8799074696     A''       A'' (2)
   59    41           3.5769226032          97.3330123485     A'        A'  (1)
   60    42           3.7212853275         101.2613217883     A'        A'  (1)
   61    81           3.9790769571         108.2761886565     A''       A'' (2)
   62    82           4.0503143733         110.2146573034     A''       A'' (2)
   63    43           4.1727589057         113.5465424196     A'        A'  (1)
   64    44           4.1854406419         113.8916300045     A'        A'  (1)
   65    83           4.3091866553         117.2589302190     A''       A'' (2)
   66    84           4.3678317497         118.8547443691     A''       A'' (2)
   67    85           4.3735570426         119.0105375087     A''       A'' (2)
   68    45           4.4553937669         121.2374279894     A'        A'  (1)
   69    46           4.4594268570         121.3471739497     A'        A'  (1)
   70    47           4.6464192398         126.4354953717     A'        A'  (1)
   71    48           4.7088750786         128.1350051453     A'        A'  (1)
   72    49           5.0255293587         136.7516061680     A'        A'  (1)
   73    86           5.0815649835         138.2764130367     A''       A'' (2)
   74    50           5.1925211206         141.2956830262     A'        A'  (1)
   75    51           5.2585690118         143.0929375166     A'        A'  (1)
   76    87           5.3990619884         146.9159457671     A''       A'' (2)
   77    52           5.6629870970         154.0977130851     A'        A'  (1)
   78    53           6.0647466384         165.0301460027     A'        A'  (1)
   79    54           6.5527020600         178.3080880599     A'        A'  (1)
   80    88           6.6956987628         182.1992261645     A''       A'' (2)
   81    55           6.7948643176         184.8976580959     A'        A'  (1)
   82    89           7.1067687021         193.3850078872     A''       A'' (2)
   83    90           7.2098620272         196.1903198835     A''       A'' (2)
   84    91           7.2269781990         196.6560745977     A''       A'' (2)
   85    56           7.2767651749         198.0108470861     A'        A'  (1)
   86    57           7.3190352535         199.1610744017     A'        A'  (1)
   87    92           7.3641978211         200.3900103430     A''       A'' (2)
   88    58           7.4541683887         202.8382339522     A'        A'  (1)
   89    59           7.7833308231         211.7951991569     A'        A'  (1)
   90    60           7.9017909839         215.0186640107     A'        A'  (1)
   91    61           8.5864130112         233.6481764798     A'        A'  (1)
   92    62          14.8287298736         403.5102539261     A'        A'  (1)


  VSCF finished.

 @CHECKOUT-I, Total execution time (CPU/WALL):        3.75/       1.89 seconds.
--executable xvscf finished with status     0 in        1.91 seconds (walltime).
 --invoking executable--
/home/qc/cfour_v2.1_intel_2017_eland2/bin/xvtran
 @GETMEM-I,  Allocated   30517 MB of main memory.
  Full RHF integral transformation
  The following   1 MOs will be dropped:
    1
  There are  91 active molecular orbitals.
  Transformation of IIII integrals :
  1 pass through the AO integral file was required.
     1908019 AO integrals were read.
     1897231 MO integrals were written to HF2.
  Transformation of IIJJ integrals :
  1 pass through the AO integral file was required.
      852741 AO integrals were read.
      879315 MO integrals were written to HF2.
  Transformation of IJIJ integrals :
  1 pass through the AO integral file was required.
     1629646 AO integrals were read.
     1675365 MO integrals were written to HF2.
  Summary of active molecular orbitals: 
------------------------------------------------------------------------
 
  Index      Eigenvalue    Symmetry    Index      Eigenvalue    Symmetry
------------------------------------------------------------------------
     1        -1.3327798        1        47         4.6464192        1
     2        -0.7073641        1        48         4.7088751        1
     3        -0.5687023        1        49         5.0255294        1
     4        -0.5059702        2        50         5.1925211        1
     5         0.0292500        1        51         5.2585690        1
     6         0.0472224        1        52         5.6629871        1
     7         0.1364202        1        53         6.0647466        1
     8         0.1725006        1        54         6.5527021        1
     9         0.1817505        1        55         6.7948643        1
    10         0.2260323        1        56         7.2767652        1
    11         0.2427741        1        57         7.3190353        1
    12         0.3126091        1        58         7.4541684        1
    13         0.3641631        1        59         7.7833308        1
    14         0.4298298        1        60         7.9017910        1
    15         0.4602930        1        61         8.5864130        1
    16         0.6009498        1        62        14.8287299        1
    17         0.6494519        1        63         0.1595098        2
    18         0.7110059        1        64         0.2631072        2
    19         0.8151846        1        65         0.3041823        2
    20         0.8970971        1        66         0.7192429        2
    21         0.9049103        1        67         0.7320754        2
    22         0.9261821        1        68         0.8396985        2
    23         0.9700047        1        69         0.9153793        2
    24         1.0104299        1        70         0.9299728        2
    25         1.0341293        1        71         1.0797535        2
    26         1.1071655        1        72         1.1620485        2
    27         1.1623316        1        73         1.5043415        2
    28         1.2727785        1        74         1.5772721        2
    29         1.5792237        1        75         2.2540662        2
    30         1.7446111        1        76         2.3099709        2
    31         1.8123851        1        77         2.4025179        2
    32         1.9613581        1        78         2.7129744        2
    33         2.0798637        1        79         2.8620341        2
    34         2.3239235        1        80         3.9790770        2
    35         2.4004455        1        81         4.0503144        2
    36         2.4382362        1        82         4.3091867        2
    37         2.4861650        1        83         4.3678317        2
    38         2.7147848        1        84         4.3735570        2
    39         2.7256217        1        85         5.0815650        2
    40         2.8610931        1        86         5.3990620        2
    41         3.5769226        1        87         6.6956988        2
    42         3.7212853        1        88         7.1067687        2
    43         4.1727589        1        89         7.2098620        2
    44         4.1854406        1        90         7.2269782        2
    45         4.4553938        1        91         7.3641978        2
    46         4.4594269        1
------------------------------------------------------------------------
  -1.33277981303121      -0.707364054641601      -0.568702336859399     
 -0.505970192037450       2.924999403095524E-002  4.722241248205910E-002
  0.136420215086117       0.172500585328911       0.181750541762855     
  0.226032266957301       0.242774077265470       0.312609140294645     
  0.364163083131266       0.429829763028846       0.460292961725988     
  0.600949835098276       0.649451864609827       0.711005852698864     
  0.815184556149235       0.897097074388039       0.904910325936759     
  0.926182077429792       0.970004748330779        1.01042993833674     
   1.03412926746740        1.10716545884205        1.16233162990225     
   1.27277849282626        1.57922370931164        1.74461110203841     
   1.81238507640925        1.96135808700831        2.07986369999128     
   2.32392351751233        2.40044548558762        2.43823617518057     
   2.48616496336691        2.71478484586298        2.72562166550598     
   2.86109307402927        3.57692260322457        3.72128532753440     
   4.17275890572895        4.18544064189192        4.45539376691158     
   4.45942685698701        4.64641923981205        4.70887507855464     
   5.02552935871811        5.19252112063691        5.25856901184087     
   5.66298709697634        6.06474663844767        6.55270205997215     
   6.79486431755067        7.27676517490367        7.31903525352010     
   7.45416838866627        7.78333082311841        7.90179098394179     
   8.58641301124869        14.8287298736186       0.159509848615092     
  0.263107231929030       0.304182311027652       0.719242912956544     
  0.732075400978997       0.839698490848738       0.915379335163931     
  0.929972785616971        1.07975349057561        1.16204848328019     
   1.50434154730503        1.57727206105093        2.25406617247177     
   2.30997091768496        2.40251787388960        2.71297436655029     
   2.86203410994525        3.97907695705473        4.05031437333835     
   4.30918665528155        4.36783174974722        4.37355704262713     
   5.08156498345213        5.39906198841309        6.69569876276474     
   7.10676870207311        7.20986202721097        7.22697819904606     
   7.36419782108473     
 @CHECKOUT-I, Total execution time (CPU/WALL):        3.30/       2.25 seconds.
--executable xvtran finished with status     0 in        2.28 seconds (walltime).
 --invoking executable--
/home/qc/cfour_v2.1_intel_2017_eland2/bin/xintprc
 @GETMEM-I,  Allocated   30517 MB of main memory.
  @GMOIAA-I, Processing MO integrals for spin case AA.
  @GMOIAA-I, Generation of integral list completed.
                      TYPE                NUMBER
                      ----               --------
                      PPPP               3719134
                      PPPH                679528
                      PPHH                 31291
                      PHPH                 20068
                      PHHH                  1856
                      HHHH                    34

                     TOTAL               4451911

  @FORMT2-I, Second-order MP correlation energies:
            ------------------------------------------------
            E(SCF)                  =    -76.055278605848 a.u.
            E2(AA)                  =     -0.032855378314 a.u.
            E2(AB)                  =     -0.205177356343 a.u.
            E2(TOT)                 =     -0.270888112972 a.u.
            Total MP2 energy        =    -76.326166718820 a.u.
            ------------------------------------------------
   Largest T2 amplitudes for spin case AB:
       _       _                 _       _                 _       _
   i   j   a   b             i   j   a   b             i   j   a   b
-----------------------------------------------------------------------------
[  2   2  15  15]-0.02085 [  3   3  20  20]-0.01924 [  4   4  71  71]-0.01592
[  4   4  70  70]-0.01457 [  3   2  20  15]-0.01385 [  2   3  15  20]-0.01385
[  2   2  25  15]-0.01353 [  2   2  15  25]-0.01353 [  4   4  71  70]-0.01320
[  4   4  70  71]-0.01320 [  4   3  70  20]-0.01290 [  3   4  20  70]-0.01290
[  2   2  16  16]-0.01274 [  2   2  15   9]-0.01268 [  2   2   9  15]-0.01268
-----------------------------------------------------------------------------
   Norm of T2AB vector (    62234 symmetry allowed elements):  0.2213805233.
-----------------------------------------------------------------------------
 @CHECKOUT-I, Total execution time (CPU/WALL):        0.98/       0.79 seconds.
--executable xintprc finished with status     0 in        0.82 seconds (walltime).
  calling xvcc 
 --invoking executable--
/home/qc/cfour_v2.1_intel_2017_eland2/bin/xvcc
 @GETMEM-I,  Allocated   30517 MB of main memory.
   CC3 energy will be calculated.
   The total correlation energy is -0.270888112972 a.u.
   The total correlation energy is -0.278636336028 a.u.
  Convergence information after     1 iterations: 
  Largest element of residual vector :  0.10107649E-01.
  Largest element of DIIS residual   :  0.10107649E-01.
   The total correlation energy is -0.283360433925 a.u.
  Convergence information after     2 iterations: 
  Largest element of residual vector :  0.15746063E-02.
  Largest element of DIIS residual   : -0.17573049E-02.
   The total correlation energy is -0.284257047193 a.u.
  Convergence information after     3 iterations: 
  Largest element of residual vector :  0.18033649E-02.
  Largest element of DIIS residual   :  0.11328501E-02.
   The total correlation energy is -0.284737843230 a.u.
  Convergence information after     4 iterations: 
  Largest element of residual vector :  0.25669895E-03.
  Largest element of DIIS residual   : -0.13653543E-03.
   The total correlation energy is -0.284773356388 a.u.
  Convergence information after     5 iterations: 
  Largest element of residual vector :  0.14583133E-03.
  Largest element of DIIS residual   :  0.69218197E-04.
   The total correlation energy is -0.284776609896 a.u.
  Convergence information after     6 iterations: 
  Largest element of residual vector :  0.33416274E-04.
  Largest element of DIIS residual   :  0.24139902E-04.
   The total correlation energy is -0.284775902726 a.u.
  Convergence information after     7 iterations: 
  Largest element of residual vector :  0.17534170E-04.
  Largest element of DIIS residual   :  0.10139159E-04.
   The total correlation energy is -0.284775833277 a.u.
  Convergence information after     8 iterations: 
  Largest element of residual vector :  0.49743511E-05.
  Largest element of DIIS residual   :  0.27177350E-05.
   The total correlation energy is -0.284776062900 a.u.
  Convergence information after     9 iterations: 
  Largest element of residual vector :  0.18191739E-05.
  Largest element of DIIS residual   : -0.13474194E-05.
   The total correlation energy is -0.284776090268 a.u.
  Convergence information after    10 iterations: 
  Largest element of residual vector :  0.59657973E-06.
  Largest element of DIIS residual   :  0.36009526E-06.
   The total correlation energy is -0.284776103850 a.u.
  Convergence information after    11 iterations: 
  Largest element of residual vector : -0.20047005E-06.
  Largest element of DIIS residual   : -0.89890175E-07.
   The total correlation energy is -0.284776106531 a.u.
  Convergence information after    12 iterations: 
  Largest element of residual vector :  0.58052895E-07.
  Largest element of DIIS residual   :  0.25994600E-07.
   The total correlation energy is -0.284776107164 a.u.
  Convergence information after    13 iterations: 
  Largest element of residual vector :  0.11011729E-07.
  Largest element of DIIS residual   :  0.79679509E-08.
   The total correlation energy is -0.284776107550 a.u.
  Convergence information after    14 iterations: 
  Largest element of residual vector :  0.70078298E-08.
  Largest element of DIIS residual   :  0.34850725E-08.
   The total correlation energy is -0.284776107785 a.u.
  Convergence information after    15 iterations: 
  Largest element of residual vector :  0.22670940E-08.
  Largest element of DIIS residual   :  0.13118376E-08.
   The total correlation energy is -0.284776107833 a.u.
  Convergence information after    16 iterations: 
  Largest element of residual vector :  0.95544289E-09.
  Largest element of DIIS residual   :  0.30857747E-09.
  Amplitude equations converged in    16iterations.
   The total correlation energy is -0.284776107841 a.u.
   The CC iterations have converged.

   Largest T1 amplitudes for spin case AA:
   i       a                 i       a                 i       a    
-----------------------------------------------------------------------------
[  4      63    ] 0.01498 [  4      65    ]-0.01254 [  3       7    ] 0.00874
[  3      12    ] 0.00782 [  2      32    ]-0.00530 [  4      81    ]-0.00390
[  3       5    ] 0.00382 [  4      68    ] 0.00370 [  2      25    ]-0.00338
[  2      48    ]-0.00333 [  3      33    ]-0.00331 [  3      47    ]-0.00329
[  4      70    ] 0.00289 [  1      20    ]-0.00271 [  3      19    ] 0.00267
-----------------------------------------------------------------------------
   Norm of T1AA vector (      203 symmetry allowed elements):  0.0278304871.
-----------------------------------------------------------------------------
   Largest T2 amplitudes for spin case AB:
       _       _                 _       _                 _       _
   i   j   a   b             i   j   a   b             i   j   a   b
-----------------------------------------------------------------------------
[  2   2  15  15]-0.02397 [  3   3  20  20]-0.02106 [  4   4  71  71]-0.01686
[  2   2  25  15]-0.01562 [  2   2  15  25]-0.01562 [  4   4  70  70]-0.01562
[  2   2  16  16]-0.01509 [  4   4  63  63]-0.01452 [  4   4  71  70]-0.01441
[  4   4  70  71]-0.01441 [  3   3  16  16]-0.01436 [  2   2  15   9]-0.01426
[  2   2   9  15]-0.01426 [  3   2  20  15]-0.01390 [  2   3  15  20]-0.01390
-----------------------------------------------------------------------------
   Norm of T2AB vector (    62234 symmetry allowed elements):  0.2488355582.
-----------------------------------------------------------------------------
       Summary of iterative solution of CC equations 
      -----------------------------------------------------------
                       Correlation           Total
       Iteration         Energy              Energy
      -----------------------------------------------------------
            0        -0.270888112972     -76.326166718820  DIIS 
            1        -0.278636336028     -76.333914941876  DIIS 
            2        -0.283360433925     -76.338639039773  DIIS 
            3        -0.284257047193     -76.339535653040  DIIS 
            4        -0.284737843230     -76.340016449078  DIIS 
            5        -0.284773356388     -76.340051962236  DIIS 
            6        -0.284776609896     -76.340055215744  DIIS 
            7        -0.284775902726     -76.340054508574  DIIS 
            8        -0.284775833277     -76.340054439125  DIIS 
            9        -0.284776062900     -76.340054668748  DIIS 
           10        -0.284776090268     -76.340054696116  DIIS 
           11        -0.284776103850     -76.340054709698  DIIS 
           12        -0.284776106531     -76.340054712379  DIIS 
           13        -0.284776107164     -76.340054713012  DIIS 
           14        -0.284776107550     -76.340054713398  DIIS 
           15        -0.284776107785     -76.340054713633  DIIS 
           16        -0.284776107841     -76.340054713689  DIIS 
      -----------------------------------------------------------
      A miracle has come to pass. The CC iterations have converged.
      The reference energy is       -76.05527860584796 a.u.
      The correlation energy is      -0.28477610784079 a.u.
      The total energy is           -76.34005471368876 a.u.
 @CHECKOUT-I, Total execution time (CPU/WALL):       57.01/      28.54 seconds.
--executable xvcc finished with status     0 in       28.57 seconds (walltime).
 --invoking executable--
/home/qc/cfour_v2.1_intel_2017_eland2/bin/xlambda
 @GETMEM-I,  Allocated   30517 MB of main memory.
 Hbar is calculated for a CCSD wave function.
 Calculation of Hbar completed.
 @CHECKOUT-I, Total execution time (CPU/WALL):        0.84/       0.45 seconds.
--executable xlambda finished with status     0 in        0.48 seconds (walltime).
 --invoking executable--
/home/qc/cfour_v2.1_intel_2017_eland2/bin/xvip
 @GETMEM-I,  Allocated   30517 MB of main memory.
 IPs are calculated using the EOMIP-CCSD method.
  Summary of active alpha molecular orbitals:
------------------------------------------------------------------------------
Orbital Symm. Eigenvalue  <xx>     <yy>     <zz>     <xy>     <xz>     <yz>
------------------------------------------------------------------------------
    1     1      -1.3328   0.000    0.000    0.000    0.000    0.000    0.000
    2     1      -0.7074   0.000    0.000    0.000    0.000    0.000    0.000
    3     1      -0.5687   0.000    0.000    0.000    0.000    0.000    0.000
    4     2      -0.5060   0.000    0.000    0.000    0.000    0.000    0.000
    5     1       0.0292   0.000    0.000    0.000    0.000    0.000    0.000
    6     1       0.0472   0.000    0.000    0.000    0.000    0.000    0.000
    7     1       0.1364   0.000    0.000    0.000    0.000    0.000    0.000
    8     1       0.1725   0.000    0.000    0.000    0.000    0.000    0.000
    9     1       0.1818   0.000    0.000    0.000    0.000    0.000    0.000
   10     1       0.2260   0.000    0.000    0.000    0.000    0.000    0.000
   11     1       0.2428   0.000    0.000    0.000    0.000    0.000    0.000
   12     1       0.3126   0.000    0.000    0.000    0.000    0.000    0.000
   13     1       0.3642   0.000    0.000    0.000    0.000    0.000    0.000
   14     1       0.4298   0.000    0.000    0.000    0.000    0.000    0.000
   15     1       0.4603   0.000    0.000    0.000    0.000    0.000    0.000
   16     1       0.6009   0.000    0.000    0.000    0.000    0.000    0.000
   17     1       0.6495   0.000    0.000    0.000    0.000    0.000    0.000
   18     1       0.7110   0.000    0.000    0.000    0.000    0.000    0.000
   19     1       0.8152   0.000    0.000    0.000    0.000    0.000    0.000
   20     1       0.8971   0.000    0.000    0.000    0.000    0.000    0.000
   21     1       0.9049   0.000    0.000    0.000    0.000    0.000    0.000
   22     1       0.9262   0.000    0.000    0.000    0.000    0.000    0.000
   23     1       0.9700   0.000    0.000    0.000    0.000    0.000    0.000
   24     1       1.0104   0.000    0.000    0.000    0.000    0.000    0.000
   25     1       1.0341   0.000    0.000    0.000    0.000    0.000    0.000
   26     1       1.1072   0.000    0.000    0.000    0.000    0.000    0.000
   27     1       1.1623   0.000    0.000    0.000    0.000    0.000    0.000
   28     1       1.2728   0.000    0.000    0.000    0.000    0.000    0.000
   29     1       1.5792   0.000    0.000    0.000    0.000    0.000    0.000
   30     1       1.7446   0.000    0.000    0.000    0.000    0.000    0.000
   31     1       1.8124   0.000    0.000    0.000    0.000    0.000    0.000
   32     1       1.9614   0.000    0.000    0.000    0.000    0.000    0.000
   33     1       2.0799   0.000    0.000    0.000    0.000    0.000    0.000
   34     1       2.3239   0.000    0.000    0.000    0.000    0.000    0.000
   35     1       2.4004   0.000    0.000    0.000    0.000    0.000    0.000
   36     1       2.4382   0.000    0.000    0.000    0.000    0.000    0.000
   37     1       2.4862   0.000    0.000    0.000    0.000    0.000    0.000
   38     1       2.7148   0.000    0.000    0.000    0.000    0.000    0.000
   39     1       2.7256   0.000    0.000    0.000    0.000    0.000    0.000
   40     1       2.8611   0.000    0.000    0.000    0.000    0.000    0.000
   41     1       3.5769   0.000    0.000    0.000    0.000    0.000    0.000
   42     1       3.7213   0.000    0.000    0.000    0.000    0.000    0.000
   43     1       4.1728   0.000    0.000    0.000    0.000    0.000    0.000
   44     1       4.1854   0.000    0.000    0.000    0.000    0.000    0.000
   45     1       4.4554   0.000    0.000    0.000    0.000    0.000    0.000
   46     1       4.4594   0.000    0.000    0.000    0.000    0.000    0.000
   47     1       4.6464   0.000    0.000    0.000    0.000    0.000    0.000
   48     1       4.7089   0.000    0.000    0.000    0.000    0.000    0.000
   49     1       5.0255   0.000    0.000    0.000    0.000    0.000    0.000
   50     1       5.1925   0.000    0.000    0.000    0.000    0.000    0.000
   51     1       5.2586   0.000    0.000    0.000    0.000    0.000    0.000
   52     1       5.6630   0.000    0.000    0.000    0.000    0.000    0.000
   53     1       6.0647   0.000    0.000    0.000    0.000    0.000    0.000
   54     1       6.5527   0.000    0.000    0.000    0.000    0.000    0.000
   55     1       6.7949   0.000    0.000    0.000    0.000    0.000    0.000
   56     1       7.2768   0.000    0.000    0.000    0.000    0.000    0.000
   57     1       7.3190   0.000    0.000    0.000    0.000    0.000    0.000
   58     1       7.4542   0.000    0.000    0.000    0.000    0.000    0.000
   59     1       7.7833   0.000    0.000    0.000    0.000    0.000    0.000
   60     1       7.9018   0.000    0.000    0.000    0.000    0.000    0.000
   61     1       8.5864   0.000    0.000    0.000    0.000    0.000    0.000
   62     1      14.8287   0.000    0.000    0.000    0.000    0.000    0.000
   63     2       0.1595   0.000    0.000    0.000    0.000    0.000    0.000
   64     2       0.2631   0.000    0.000    0.000    0.000    0.000    0.000
   65     2       0.3042   0.000    0.000    0.000    0.000    0.000    0.000
   66     2       0.7192   0.000    0.000    0.000    0.000    0.000    0.000
   67     2       0.7321   0.000    0.000    0.000    0.000    0.000    0.000
   68     2       0.8397   0.000    0.000    0.000    0.000    0.000    0.000
   69     2       0.9154   0.000    0.000    0.000    0.000    0.000    0.000
   70     2       0.9300   0.000    0.000    0.000    0.000    0.000    0.000
   71     2       1.0798   0.000    0.000    0.000    0.000    0.000    0.000
   72     2       1.1620   0.000    0.000    0.000    0.000    0.000    0.000
   73     2       1.5043   0.000    0.000    0.000    0.000    0.000    0.000
   74     2       1.5773   0.000    0.000    0.000    0.000    0.000    0.000
   75     2       2.2541   0.000    0.000    0.000    0.000    0.000    0.000
   76     2       2.3100   0.000    0.000    0.000    0.000    0.000    0.000
   77     2       2.4025   0.000    0.000    0.000    0.000    0.000    0.000
   78     2       2.7130   0.000    0.000    0.000    0.000    0.000    0.000
   79     2       2.8620   0.000    0.000    0.000    0.000    0.000    0.000
   80     2       3.9791   0.000    0.000    0.000    0.000    0.000    0.000
   81     2       4.0503   0.000    0.000    0.000    0.000    0.000    0.000
   82     2       4.3092   0.000    0.000    0.000    0.000    0.000    0.000
   83     2       4.3678   0.000    0.000    0.000    0.000    0.000    0.000
   84     2       4.3736   0.000    0.000    0.000    0.000    0.000    0.000
   85     2       5.0816   0.000    0.000    0.000    0.000    0.000    0.000
   86     2       5.3991   0.000    0.000    0.000    0.000    0.000    0.000
   87     2       6.6957   0.000    0.000    0.000    0.000    0.000    0.000
   88     2       7.1068   0.000    0.000    0.000    0.000    0.000    0.000
   89     2       7.2099   0.000    0.000    0.000    0.000    0.000    0.000
   90     2       7.2270   0.000    0.000    0.000    0.000    0.000    0.000
   91     2       7.3642   0.000    0.000    0.000    0.000    0.000    0.000
------------------------------------------------------------------------------
  nsizec is                    639
  @DOEOMIP2-I, right-hand eigenvectors will be computed.
  Beginning symmetry block   2.   1 roots requested.
  1   1  0.5853785947D+00  0.1592896137D+02  0.0000000000D+00  0.4601804378D+00
  2   2  0.5282481177D+00  0.1437436206D+02  0.9945149613D+00  0.8896583200D-01
  3   3  0.5077085901D+00  0.1381545310D+02  0.9968376413D+00  0.2135912812D-01
  4   4  0.5067272378D+00  0.1378874915D+02  0.9998705729D+00  0.4154288681D-02
  L-O-C-K-I-N-G O-N R-O-O-T 
  5   5  0.5066186115D+00  0.1378579328D+02  0.9999966255D+00  0.1011814628D-02
  6   6  0.5066130560D+00  0.1378564210D+02  0.9999997820D+00  0.1785825586D-03
  7   7  0.5066132562D+00  0.1378564755D+02  0.9999999911D+00  0.4783209019D-04
  8   8  0.5066128218D+00  0.1378563573D+02  0.9999999995D+00  0.8744681168D-05
  9   9  0.5066128773D+00  0.1378563724D+02  0.1000000000D+01  0.2119511550D-05
 10  10  0.5066128707D+00  0.1378563706D+02  0.1000000000D+01  0.4004546717D-06
 11  11  0.5066128727D+00  0.1378563711D+02  0.1000000000D+01  0.7440402912D-07
 12  12  0.5066128727D+00  0.1378563711D+02  0.1000000000D+01  0.1664508801D-07
 13  13  0.5066128727D+00  0.1378563711D+02  0.1000000000D+01  0.4388569982D-08
 14  14  0.5066128727D+00  0.1378563712D+02  0.1000000000D+01  0.6637331719D-09
 15  15  0.5066128727D+00  0.1378563712D+02  0.1000000000D+01  0.1423481190D-09
 16  16  0.5066128727D+00  0.1378563712D+02  0.1000000000D+01  0.2624700085D-10
  Converged eigenvalue:   0.506612872728599       a.u.
   Total EOMIP-CCSD electronic energy     -75.83344184096016 a.u.
          --------------------------------
             I    J    A       C(IJA)
          --------------------------------
              0    4    0    0.6977868299
              4    4   63   -0.0370213530
              4    4   70   -0.0313062028
              4    4   71   -0.0274037764
              2    4   15   -0.0272040194
              4    4   65    0.0265638123
              3    4   20   -0.0236278553
              3    4    7   -0.0225668301
              2    4    9   -0.0215868989
              3    4   12   -0.0203642135
              4    4   68   -0.0168058064
              1    4   14   -0.0158893528
              2    4   25   -0.0149622827
              1    4    8   -0.0131521291
              3    4   14   -0.0128780463
          --------------------------------

  Eigenvector is saved on CCRE_1_1  

  VIP all done  ! 
 @CHECKOUT-I, Total execution time (CPU/WALL):        0.50/       0.38 seconds.
--executable xvip finished with status     0 in        0.41 seconds (walltime).
  The final electronic energy is       -75.833441840960162 a.u. 
  This computation required                           36.44 seconds (walltime).
 
Timing info
60.216u 8.286s 0:36.45 187.9% 0+0k 0+985560io 104pf+0w
 
Scratch space info (BEFORE cleaning //scratch/mdavis)
 
Cleaning up ...
Filesystem      Size  Used Avail Use% Mounted on
/dev/sda9       785G  315G  431G  43% /scratch
 
Scratch space info (AFTER cleaning //scratch/mdavis)
Filesystem      Size  Used Avail Use% Mounted on
/dev/sda9       785G  315G  431G  43% /scratch
