 --invoking executable--
/home/qc/cfour_v2.1_intel_2017_eland2/bin/xjoda


   *************************************************************************
         <<<     CCCCCC     CCCCCC   |||     CCCCCC     CCCCCC   >>>
       <<<      CCC        CCC       |||    CCC        CCC         >>>
      <<<      CCC        CCC        |||   CCC        CCC            >>>
    <<<        CCC        CCC        |||   CCC        CCC              >>>
      <<<      CCC        CCC        |||   CCC        CCC            >>>
       <<<      CCC        CCC       |||    CCC        CCC         >>>
         <<<     CCCCCC     CCCCCC   |||     CCCCCC     CCCCCC   >>>
   *************************************************************************

     ****************************************************************
     * CFOUR Coupled-Cluster techniques for Computational Chemistry *
     ****************************************************************
 

   Department of Chemistry                Institut fuer Physikalische Chemie
   University of Florida                  Universitaet Mainz
   Gainesville, FL 32611, USA             D-55099 Mainz, Germany

   Department of Chemistry                Fakultaet fuer Chemie und Biowiss.
   Johns Hopkins University               Karlsruher Institut fuer Technologie
   Baltimore, MD 21218, USA               D-76131 Karlsruhe, Germany

   Department of Chemistry                Department of Physical Chemistry
   Southern Methodist University          Eotvos Lorand University
   Dallas, TX 75275, USA                  H-1053 Budapest, Hungary

 
                       Version 2.1
 
                     node19                                            
                     Fri 04 Nov 2022 09:27:05 AM CDT                   
                     integer*8 version is running
 
********************************************************************************
*                          Input from ZMAT file                                *
********************************************************************************
h2o AUG-PVTZ CC3                                                                
H        0.0000000000       -1.5480127958       -0.9704867943                   
O        0.0000000000        0.0000000000        0.1247093987                   
H        0.0000000000        1.5480127958       -0.9704867943                   
                                                                                
                                                                                
                                                                                
*CFOUR(CALC=CC3,BASIS=AUG-PVTZ,COORDINATES=CARTESIAN,UNITS=BOHR                 
CC_CONV=9                                                                       
LINEQ_CONV=12                                                                   
SCF_CONV=9                                                                      
ESTATE_CONV=10                                                                  
CHARGE=0                                                                        
MULTIPLICITY=1                                                                  
FROZEN_CORE=ON                                                                  
RELATIVISTIC=OFF                                                                
REFERENCE=RHF                                                                   
EXCITE=EOMIP                                                                    
ESTATE_SYM=0/1/0/0                                                              
MEM_UNIT=GB,MEMORY_SIZE=32)                                                     
                                                                                
H:APVTZ-X2C                                                                     
O:APVTZ-X2C                                                                     
H:APVTZ-X2C                                                                     
                                                                                
********************************************************************************
    -------------------------------------------------------------------
                    CFOUR Control Parameters 
    -------------------------------------------------------------------
        External           Internal           Value            Units
          Name               Name
    -------------------------------------------------------------------
       ABCDTYPE             IABCDT         STANDARD    [  0]    ***   
       ANHARMONIC           IANHAR         OFF         [  0]    ***   
       ANH_ALGORIT          IANALG         STANDARD    [  0]    ***   
       ANH_DERIVAT          IANDER         SECOND      [  1]    ***   
       ANH_MODE             ANHMOD         VIBRATION   [  0]    ***   
       ANH_STEPSIZ          ICUBST             50000          x 10-6  
       ANH_SYMMETR          IANHSM         ABELIAN     [  0]    ***   
       AO_LADDERS           IAOLAD         SINGLEPASS  [  1]    ***   
       AV_SCF               IAVSCF         OFF         [  0]    ***   
       BASIS                IBASIS         AUG-PVTZ    [ 34]    ***   
       BOTHVECTORS          BOTHVC         OFF         [  0]    ***   
       BOX_POTENT           IPIAB          OFF         [  0]    ***   
       BREIT                IBREIT         OFF         [  0]    ***   
       BRUCK_CONV           IBRTOL          10D-  4             ***   
       BRUECKNER            IBRKNR         OFF         [  0]    ***   
       BUFFERSIZE           IBUFFS              4096            ***   
       CACHE_RECS           ICHREC             10               ***   
       CALCLEVEL            ICLLVL         CC3         [ 32]    ***   
       CCORBOPT             ICCORB         OFF         [  0]  x 0.01  
       CC_CONV              ICCCNV          10D-  9             ***   
       CC_EXPORDER          ICCEOR              5               ***   
       CC_EXTRAPOL          ICCEXT         DIIS        [  1]    ***   
       CC_GUESS             ICCGES         MP2         [  0]    ***   
       CC_MAXCYC            ICCCYC            100              cycles 
       CC_PROGRAM           ICCPRO         VCC         [  0]    ***   
       CHARGE               ICHRGE              0               ***   
       CHOLESKY             ICHOLE         OFF         [  0]    ***   
       CIS_CONV             ICISTL              5               ***   
       COMM_SIZE            IPSIZE            ***               ***   
       CONSTANT             ICONST         OLD         [  1]    ***   
       CONTINUUM            ICONTU         NONE        [  0]    ***   
       CONTRACTION          ICNTYP         GENERAL     [  1]    ***   
       COORDINATES          ICOORD         CARTESIAN   [  1]    ***   
       CPHF_CONVER          ICPHFT          10D- 16             ***   
       CPHF_MAXCYC          ICPHFC             64              cycles 
       CUBIC                ICUBIC         OFF         [  0]    ***   
       CURVILINEAR          ICURVY         OFF         [  0]    ***   
       DBOC                 IDBOC          OFF         [  0]    ***   
       DCT                  IDCT           OFF         [  0]    ***   
       DERIV_LEV            IDRLVL         ZERO        [  0]    ***   
       DEVMEM_SIZE          IDVMEM         *********           MByte  
       DIAG_MRCC            IEOMST          10D-  0             ***   
       DIFF_TYPE            IDIFTY         RELAXED     [  0]    ***   
       DIRECT               IDIRCT         OFF         [  0]    ***   
       DROPMO               IDRPMO      NONE         
       ECP                  IECP           OFF         [  0]    ***   
       EIGENVECTOR          IVEC                1               ***   
       EL_ANHARM            IELANH         OFF         [  0]    ***   
       EOMFOLLOW            IEOMSR         ENERGY      [  0]    ***   
       EOMIP                IEOMIP         OFF         [  0]    ***   
       EOMLEVEL             HBARFM         SAME        [  0]    ***   
       EOM_MRCC             IMRCCE         NEW         [  1]    ***   
       EOM_NONIT            EOMNON         OFF         [  0]    ***   
       EOM_NSING            IEOMSI          10D-  0             ***   
       EOM_NSTATES          IMRCCD         DAVIDSON    [  0]    ***   
       EOM_NTRIP            IEOMTR          10D-  0             ***   
       EOM_ORDER            IEXORD         ENERGY      [  0]    ***   
       EOM_PROPSTA          IEOMST              0               ***   
       ESTATE_CONV          IEXTOL          10D- 10             ***   
       ESTATE_DIAG          IEXDIG         ITERATIVE   [  0]    ***   
       ESTATE_LOCK          IESLOC         ON          [  1]    ***   
       ESTATE_MAXC          IEXMXC             40               ***   
       ESTATE_PROP          IEXPRP         OFF         [  0]    ***   
       ESTATE_SYM           IEXSYM   0,  1,  0,  0,
       EVAL_HESS            IRECAL              0            # of cyc.
       EXCITATION           IEXCIT              0               ***   
       EXCITE               IEXCIT         EOMIP       [  4]    ***   
       EXTERN_POT           IEXPOT         OFF         [  0]    ***   
       FCGRADNEW            IFCGNW         OFF         [  0]    ***   
       FC_FIELD             IFINFC              0             x 10-6  
       FD_CALTYPE           IFDCAL         GRADONLY    [  0]    ***   
       FD_PROJECT           IFDPRJ         OFF         [  1]    ***   
       FD_STEPSIZE          IDISFD              0            10-4 bohr
       FD_USEGROUP          IFDGRP         FULL        [  0]    ***   
       FILE_RECSIZ          IFLREC              4096           words  
       FINITE_PERT          IFIPER              0             x 10-6  
       FIXGEOM              IFIXGM         OFF         [  0]    ***   
       FOCK                 IFOCK          AO          [  1]    ***   
       FREQ_ALGORI          IVIALG         STANDARD    [  0]    ***   
       FROZEN_CORE          IFROCO         ON          [  1]    ***   
       GAMMA_ABCD           IGABCD         STORE       [  0]    ***   
       GAMMA_ABCI           IGABCI         STORE       [  0]    ***   
       GENBAS_1             IGNBS1              0               ***   
       GENBAS_2             IGNBS2              0               ***   
       GENBAS_3             IGNBS3              0               ***   
       GENBAS_4             IGNBS4              0               ***   
       GEO_CONV             ICONTL              5              H/bohr 
       GEO_MAXCYC           IOPTCY             50               ***   
       GEO_MAXSTEP          IMXSTP            300            millibohr
       GEO_METHOD           INR            SINGLE_POINT[  5]    ***   
       GIAO                 IGIAO          OFF         [  1]    ***   
       GIMIC                IGIMIC         OFF         [  0]    ***   
       GRID                 IGRID          OFF         [  0]    ***   
       GRID_ALGO            IGALGO         SERIAL      [  0]    ***   
       GUESS                IGUESS         MOREAD      [  0]    ***   
       HBAR                 IHBAR          ON          [  1]    ***   
       HESS_TYPE            IHESTP         SCF         [  0]    ***   
       HF2_FILE             IHF2Fl         USE         [  1]    ***   
       HFSTABILITY          ISTABL         OFF         [  0]    ***   
       INCORE               INCORE         OFF         [  0]    ***   
       INPUT_MRCC           IMRCC          ON          [  1]    ***   
       INTEGRALS            INTTYP         VMOL        [  1]    ***   
       JODA_PRINT           IJPRNT              0               ***   
       KEYWORD_OUT          IDMPKW         NO          [  0]    ***   
       LINDEP_TOL           ILINDP              8               ***   
       LINEQ_CONV           IZTACN          10D- 12           cycles  
       LINEQ_EXPOR          ILMAXD              5               ***   
       LINEQ_MAXCY          ILMAXC            100               ***   
       LINEQ_TYPE           ILTYPE         DIIS        [  1]    ***   
       LOCK_ORBOCC          ILOCOC         OFF         [  0]    ***   
       MEMORY_SIZE          IMEMSZ         *********           words  
       MEM_UNIT             IMEMU          GB          [  3]    ***   
       MRCC                 IMRCCC         OFF         [  0]    ***   
       MULTIPLICTY          IMULTP              1               ***   
       NACOUPLING           IVCOUP         OFF         [  0]    ***   
       NEGEVAL              IDIE           ABORT       [  0]    ***   
       NEWNORM              INEWNO         OFF         [  0]    ***   
       NON-HF               INONHF         OFF         [  0]    ***   
       NTOP_TAMP            ITOPT2             15               ***   
       NUC_MODEL            INUCMO         POINT       [  0]    ***   
       OCCUPATION           IOCCU   ESTIMATED BY SCF 
       OPEN-SHELL           IOPEN          SPIN-ORBITAL[  0]    ***   
       OPTVIB               IOPTVB         OFF         [  0]    ***   
       ORBITALS             IORBTP         STANDARD    [  0]    ***   
       PARALLEL             IPARAL         ON          [  1]    ***   
       PARA_INT             IPINTS         ON          [  1]    ***   
       PARA_PRINT           IPPRIN              0               ***   
       PERT_ORB             IPTORB         STANDARD    [  0]    ***   
       POINTS               IGRDFD              0               ***   
       PRINT                IPRNT               0               ***   
       PROPS                IPROPS         OFF         [  0]    ***   
       PROP_INTEGR          IINTYP         INTERNAL    [  0]    ***   
       PSI                  IPSI           OFF         [  0]    ***   
       QC_ALG               IQCALG         FLM         [  0]    ***   
       QC_LINALG            IQCLIN         TRIDIAG     [  2]    ***   
       QC_MAXCYC            IQCMAX          10D-100           cycles  
       QC_MAXSCFCY          IQCMSC          10D- 15           cycles  
       QC_RTRUST            IQCRTR          10D-  0           x 10-3  
       QC_SKIPSCF           IQCSKI         OFF         [  0]    ***   
       QC_START             IQCSTA          10D-  1             ***   
       QRHFGUESS            IQGUES         OFF         [  0]    ***   
       QUARTIC              IQUART         OFF         [  0]    ***   
       RAMAN_INT            IRAMIN         OFF         [  0]    ***   
       RAMAN_ORB            IRAMRE         UNRELAXED   [  0]    ***   
       RDO                  IRDOFM         OFF         [  0]    ***   
       REDUCE_REPR          REDREP         Ir          [  0]    ***   
       REFERENCE            IREFNC         RHF         [  0]    ***   
       RELATIVIST           IRELAT         OFF         [  0]    ***   
       RELAX_DENS           IRDENS         OFF         [  0]    ***   
       RESET_FLAGS          IRESET         OFF         [  0]    ***   
       RESTART_CC           ICCRES         OFF         [  0]    ***   
       ROT_EVEC             ROTVEC              0               ***   
       SAVE_INTS            ISVINT         OFF         [  0]    ***   
       SCALE_ON             ISTCRT              0               ***   
       SCF_CONV             ISCFCV          10D-  9             ***   
       SCF_DAMPING          IDAMP               0             x 10-3  
       SCF_EXPORDE          IRPPOR              6               ***   
       SCF_EXPSTAR          IRPPLS              8               ***   
       SCF_EXTRAPO          IRPP           ON          [  1]    ***   
       SCF_MAXCYC           ISCFCY            150              cycles 
       SCF_NOSTOP           ISCFST         OFF         [  0]    ***   
       SCF_PRINT            ISCFPR              0               ***   
       SCF_PROG             ISCFPR         SCF         [  0]    ***   
       SD_FIELD             IFINSD              0             x 10-6  
       SOPERT               IPERSO         OFF         [  0]    ***   
       SPHERICAL            IDFGHI         ON          [  1]    ***   
       SPINORBIT            ISOCAL         OFF         [  0]    ***   
       SPINROTATIO          ISRCON         OFF         [  0]    ***   
       SPIN_FLIP            ISPFLP         OFF         [  0]    ***   
       SPIN_ORBIT           ISPORB         OFF         [  0]    ***   
       SPIN_SCAL            ISCSMP         OFF         [  0]    ***   
       STEEPSCALE           ISTPSC              1000          x 10-3  
       SUBGROUP             ISUBGP         DEFAULT     [  0]    ***   
       SUBGRPAXIS           ISBXYZ         X           [  0]    ***   
       SYMMETRY             ISYM           ON          [  0]    ***   
       SYM_CHECK            ISYMCK         OVERRIDE    [  1]    ***   
       T3_EXTRAPOL          IT3EXT         OFF         [  0]    ***   
       T4_EXTRAPOL          IT4EXP         OFF         [  0]    ***   
       TAMP_SUM             IEVERY              5               ***   
       TESTSUITE            ITESTS         OFF         [  0]    ***   
       THERMOCH             ITHERM         OFF         [  0]    ***   
       TOL_CHOLESK          ITOLCH          10D-  4             ***   
       TRANGRAD             IRESRM         OFF         [  0]    ***   
       TRANS_INV            ITRAIN         USE         [  0]    ***   
       TREAT_PERT           ITREAT         SIMULTANEOUS[  0]    ***   
       TRIP_ALGORI          ITRALG         NORMAL      [  0]    ***   
       UIJ_THRESHO          IUIJTH              1               ***   
       UNITS                IUNITS         BOHR        [  1]    ***   
       UNOS                 IUNOS          OFF         [  0]    ***   
       UPDATE_HESS          IHUPDT         ON          [  1]    ***   
       VIBPHASE             ISETPH         STANDARD    [  0]    ***   
       VIBRATION            IVIB           NO          [  0]    ***   
       VIB_ALGORIT          IGEALG         STANDARD    [  0]    ***   
       VNATORB              IVNORB         OFF         [  0]    ***   
       VTRAN                IVTRAN         FULL/PARTIAL[  0]    ***   
       XFIELD               IXEFLD              0             x 10-6  
       XFORM_TOL            IXFTOL          10D- 11             ***   
       YFIELD               IYEFLD              0             x 10-6  
       ZFIELD               IZEFLD              0             x 10-6  
       ZSCALE_EXP           IZEXPS         OFF         [  0]    ***   
    -------------------------------------------------------------------
  @GETXYZ-I,     3 atoms read from ZMAT.
   Rotational constants (in cm-1): 
          8.6279432899            12.4632194160            28.0376032379
   Rotational constants (in MHz): 
     258659.2688736362        373637.9706762754        840546.3168687132
********************************************************************************
   The full molecular point group is C2v .
   The largest Abelian subgroup of the full molecular point group is C2v .
   The computational point group is C2v .
********************************************************************************


 ----------------------------------------------------------------
         Coordinates used in calculation (QCOMP) 
 ----------------------------------------------------------------
 Z-matrix   Atomic            Coordinates (in bohr)
  Symbol    Number           X              Y              Z
 ----------------------------------------------------------------
     H         1         0.00000000    -1.54801280    -0.97262745
     O         8         0.00000000     0.00000000     0.12256874
     H         1         0.00000000     1.54801280    -0.97262745
 ----------------------------------------------------------------
 
   Interatomic distance matrix (Angstroms) 
 
                 H             O             H    
                [ 1]        [ 2]        [ 3]
  H    [ 1]     0.00000
  O    [ 2]     1.00346     0.00000
  H    [ 3]     1.63835     1.00346     0.00000
 rotcon2
   Rotational constants (in cm-1): 
          8.6279432899            28.0376032379            12.4632194160
   Rotational constants (in MHz): 
     258659.2688736362        840546.3168687132        373637.9706762754
  There is   1 frozen-core orbital.
  There are   92 basis functions.
 @GEOPT-W, Archive file not created for single-point calculation.
 @CHECKOUT-I, Total execution time (CPU/WALL):        0.11/       0.13 seconds.
--executable xjoda finished with status     0 in        0.15 seconds (walltime).
 --invoking executable--
/home/qc/cfour_v2.1_intel_2017_eland2/bin/xvmol
 SERIAL VERSION OF MOLECULE STARTED
********************************************************************************
                    INPUT FROM MOL FILE
********************************************************************************
INTGRL        1    0    1    0    0    0    0    0    0                         
         *** CFOUR Program System (Release V0.1) ***                            
h2o AUG-PVTZ CC3                                                                
    2    2 X  Y       0.10E-08              0    0                              
   9999.00      3.00                                                            
          1.00000000    1    3    1    1    1                                   
H #1   0.000000000000000  -1.548012795800000  -0.972627449606619                
    6    4                                                                      
   33.8700000000000       6.068000000000000E-003  0.000000000000000E+000        
  0.000000000000000E+000  0.000000000000000E+000                                
   5.09500000000000       4.530800000000000E-002  0.000000000000000E+000        
  0.000000000000000E+000  0.000000000000000E+000                                
   1.15900000000000       0.202822000000000       0.000000000000000E+000        
  0.000000000000000E+000  0.000000000000000E+000                                
  0.325800000000000       0.503903000000000        1.00000000000000             
  0.000000000000000E+000  0.000000000000000E+000                                
  0.102700000000000       0.383421000000000       0.000000000000000E+000        
   1.00000000000000       0.000000000000000E+000                                
  2.526000000000000E-002  0.000000000000000E+000  0.000000000000000E+000        
  0.000000000000000E+000   1.00000000000000                                     
    3    3                                                                      
   1.40700000000000        1.00000000000000       0.000000000000000E+000        
  0.000000000000000E+000                                                        
  0.388000000000000       0.000000000000000E+000   1.00000000000000             
  0.000000000000000E+000                                                        
  0.102000000000000       0.000000000000000E+000  0.000000000000000E+000        
   1.00000000000000                                                             
    2    2                                                                      
   1.05700000000000        1.00000000000000       0.000000000000000E+000        
  0.247000000000000       0.000000000000000E+000   1.00000000000000             
          8.00000000    1    4    1    1    1    1                              
O #2   0.000000000000000   0.000000000000000   0.122568743393381                
   11    5                                                                      
   15330.0000000000       5.080000000000000E-004 -1.150000000000000E-004        
  0.000000000000000E+000  0.000000000000000E+000  0.000000000000000E+000        
   2299.00000000000       3.929000000000000E-003 -8.950000000000000E-004        
  0.000000000000000E+000  0.000000000000000E+000  0.000000000000000E+000        
   522.400000000000       2.024300000000000E-002 -4.636000000000000E-003        
  0.000000000000000E+000  0.000000000000000E+000  0.000000000000000E+000        
   147.300000000000       7.918100000000000E-002 -1.872400000000000E-002        
  0.000000000000000E+000  0.000000000000000E+000  0.000000000000000E+000        
   47.5500000000000       0.230687000000000      -5.846300000000000E-002        
  0.000000000000000E+000  0.000000000000000E+000  0.000000000000000E+000        
   16.7600000000000       0.433118000000000      -0.136463000000000             
  0.000000000000000E+000  0.000000000000000E+000  0.000000000000000E+000        
   6.20700000000000       0.350260000000000      -0.175740000000000             
  0.000000000000000E+000  0.000000000000000E+000  0.000000000000000E+000        
   1.75200000000000       4.272800000000000E-002  0.160934000000000             
   1.00000000000000       0.000000000000000E+000  0.000000000000000E+000        
  0.688200000000000      -8.154000000000000E-003  0.603418000000000             
  0.000000000000000E+000  0.000000000000000E+000  0.000000000000000E+000        
  0.238400000000000       2.381000000000000E-003  0.378765000000000             
  0.000000000000000E+000   1.00000000000000       0.000000000000000E+000        
  7.376000000000001E-002  0.000000000000000E+000  0.000000000000000E+000        
  0.000000000000000E+000  0.000000000000000E+000   1.00000000000000             
    6    4                                                                      
   34.4600000000000       1.592800000000000E-002  0.000000000000000E+000        
  0.000000000000000E+000  0.000000000000000E+000                                
   7.74900000000000       9.974000000000000E-002  0.000000000000000E+000        
  0.000000000000000E+000  0.000000000000000E+000                                
   2.28000000000000       0.310492000000000       0.000000000000000E+000        
  0.000000000000000E+000  0.000000000000000E+000                                
  0.715600000000000       0.491026000000000        1.00000000000000             
  0.000000000000000E+000  0.000000000000000E+000                                
  0.214000000000000       0.336337000000000       0.000000000000000E+000        
   1.00000000000000       0.000000000000000E+000                                
  5.974000000000000E-002  0.000000000000000E+000  0.000000000000000E+000        
  0.000000000000000E+000   1.00000000000000                                     
    3    3                                                                      
   2.31400000000000        1.00000000000000       0.000000000000000E+000        
  0.000000000000000E+000                                                        
  0.645000000000000       0.000000000000000E+000   1.00000000000000             
  0.000000000000000E+000                                                        
  0.214000000000000       0.000000000000000E+000  0.000000000000000E+000        
   1.00000000000000                                                             
    2    2                                                                      
   1.42800000000000        1.00000000000000       0.000000000000000E+000        
  0.500000000000000       0.000000000000000E+000   1.00000000000000             
FINISH                                                                          
 
********************************************************************************
 ONE- AND TWO-ELECTRON INTEGRALS OVER SYMMETRY-ADAPTED AOS ARE CALCULATED.

  SPHERICAL HARMONICS ARE USED.
  
  INTEGRALS LESS THAN  0.10E-13 ARE NEGLECTED.

  NUCLEAR REPULSION ENERGY :    8.7606605547 A.U.
  @MOLECU-I, ONE ELECTRON INTEGRALS (CPU/WALL):        0.02/       0.02 SECONDS.
  @TWOEL-I,     262925 INTEGRALS OF SYMMETRY TYPE  I I I I
  @TWOEL-I,     865293 INTEGRALS OF SYMMETRY TYPE  I J I J
  @TWOEL-I,     466389 INTEGRALS OF SYMMETRY TYPE  I I J J
  @TWOEL-I,     575256 INTEGRALS OF SYMMETRY TYPE  I J K L
  @TWOEL-I, TOTAL NUMBER OF 2-E INTEGRALS    2169863.
  @MOLECU-I, TWO ELECTRON INTEGRALS (CPU/WALL):        0.71/       0.71 SECONDS.
 @CHECKOUT-I, Total execution time (CPU/WALL):        0.73/       0.73 seconds.

OMP_NUM_THREADS not specified; defaulting to 1
Running with 1 threads/proc

--executable xvmol finished with status     0 in        0.76 seconds (walltime).
 --invoking executable--
/home/qc/cfour_v2.1_intel_2017_eland2/bin/xvmol2ja
 @GETMEM-I,  Allocated   30517 MB of main memory.
 @CHECKOUT-I, Total execution time (CPU/WALL):        0.02/       0.01 seconds.
--executable xvmol2ja finished with status     0 in        0.03 seconds (walltime).
 --invoking executable--
/home/qc/cfour_v2.1_intel_2017_eland2/bin/xvscf
  There are   92 functions in the AO basis.

  There are 4 irreducible representations.

       Irrep        # of functions
         1                 35
         2                 18
         3                 27
         4                 12


  Parameters for SCF calculation: 
        SCF reference function:  RHF  
  Maximum number of iterations:  150
     Full symmetry point group: C2v 
     Computational point group: C2v 
        Initial density matrix: MOREAD                 
     SCF convergence tolerance: 10**(- 9)
  DIIS convergence acceleration:  ON
          Latest start for DIIS:   8
                     DIIS order:   6

  Memory information:     401180 words required.
  Fock matrices are constructed from AO integral file.
 @GETMEM-I,  Allocated       3 MB of main memory.
  Initialization and symmetry analysis required      0.001 seconds.

  @INITGES-I, Occupancies from core Hamiltonian:

          Alpha population by irrep:   3    1    1    0
           Beta population by irrep:   3    1    1    0


 total no. of electrons in initial guess :  0.000000000000000E+000
  --------------------------------------------------------------------
  Iteration         Total Energy            Largest Density Difference
  --------------------------------------------------------------------
       0             8.760660554702692              0.0000000000D+00
   current occupation vector 
     3  1  1  0
     3  1  1  0
       1           -61.233328840462718              0.1230687718D+02
   current occupation vector 
     3  1  1  0
     3  1  1  0
       2           -63.678467384477614              0.2881373973D+02
   current occupation vector 
     3  0  2  0
     3  0  2  0
       3           -70.762399266542261              0.2881393607D+02
   current occupation vector 
     3  1  1  0
     3  1  1  0
       4           -67.741685013077699              0.2487721237D+02
   current occupation vector 
     3  0  2  0
     3  0  2  0
       5           -72.114500831457249              0.2487676743D+02
   current occupation vector 
     3  1  1  0
     3  1  1  0
       6           -68.706839557894114              0.2336070965D+02
   current occupation vector 
     3  0  2  0
     3  0  2  0
       7           -72.483608082268958              0.2336081889D+02
   current occupation vector 
     3  1  1  0
     3  1  1  0
       8           -68.974030659384610              0.2296867946D+02
   current occupation vector 
     3  0  2  0
     3  0  2  0
       9           -75.754317913074658              0.2296959854D+02
   current occupation vector 
     3  1  1  0
     3  1  1  0
      10           -76.042101121316961              0.5363317356D+00
   current occupation vector 
     3  1  1  0
     3  1  1  0
      11           -76.052932909126596              0.9321303512D-01
   current occupation vector 
     3  1  1  0
     3  1  1  0
      12           -76.053067839539125              0.1217192826D-01
   current occupation vector 
     3  1  1  0
     3  1  1  0
      13           -76.053081046081587              0.4144499567D-02
   current occupation vector 
     3  1  1  0
     3  1  1  0
      14           -76.053083160334097              0.2422674959D-02
   current occupation vector 
     3  1  1  0
     3  1  1  0
      15           -76.053083199274354              0.3443506482D-03
   current occupation vector 
     3  1  1  0
     3  1  1  0
      16           -76.053083200039779              0.3556827292D-04
   current occupation vector 
     3  1  1  0
     3  1  1  0
      17           -76.053083200127332              0.1810532159D-04
   current occupation vector 
     3  1  1  0
     3  1  1  0
      18           -76.053083200129890              0.3166801826D-05
   current occupation vector 
     3  1  1  0
     3  1  1  0
      19           -76.053083200129308              0.3127589583D-06
   current occupation vector 
     3  1  1  0
     3  1  1  0
      20           -76.053083200129947              0.3597479026D-07
   current occupation vector 
     3  1  1  0
     3  1  1  0
      21           -76.053083200129706              0.8689827247D-08
   current occupation vector 
     3  1  1  0
     3  1  1  0
      22           -76.053083200129734              0.1385933535D-08
   current occupation vector 
     3  1  1  0
     3  1  1  0

  SCF has converged.

 Density matrix saved to file den.dat
 total electron number:   10.0000000000000     
     E(SCF)=       -76.053083200129777              0.5349984344D-09

  Eigenvector printing suppressed.

 @PUTMOS-I, Writing converged MOs to NEWMOS. 
 @PUTMOS-I, Symmetry   1 Full Blocks  8 Partial Blocksize   3
 @PUTMOS-I, Symmetry   2 Full Blocks  4 Partial Blocksize   2
 @PUTMOS-I, Symmetry   3 Full Blocks  6 Partial Blocksize   3
 @PUTMOS-I, Symmetry   4 Full Blocks  3 Partial Blocksize   0
 @PUTFOCK-I, Writing converged Fock matrix to NEWFOCK. 
 @PUTFOCK-I, Symmetry   1 Full Blocks  8 Partial Blocksize   3
 @PUTFOCK-I, Symmetry   2 Full Blocks  4 Partial Blocksize   2
 @PUTFOCK-I, Symmetry   3 Full Blocks  6 Partial Blocksize   3
 @PUTFOCK-I, Symmetry   4 Full Blocks  3 Partial Blocksize   0


 
  ORBITAL EIGENVALUES (ALPHA)  (1H = 27.2113834 eV)

       MO #        E(hartree)               E(eV)           FULLSYM    COMPSYM
       ----   --------------------   --------------------   -------   ---------
    1     1         -20.5726558645        -559.8104262852      A1        A1 (1)
    2     2          -1.3278546533         -36.1327620699      A1        A1 (1)
    3    54          -0.7016542901         -19.0929839030      B2        B2 (3)
    4     3          -0.5667386521         -15.4217427507      A1        A1 (1)
    5    36          -0.5051593429         -13.7460845568      B1        B1 (2)
  +++++++++++++++++++++++++++++++++++++++++++++++++++++++++++++++++++++++++++++
    6     4           0.0290929814           0.7916602722      A1        A1 (1)
    7    55           0.0471695138           1.2835477255      B2        B2 (3)
    8     5           0.1363242556           3.7095715869      A1        A1 (1)
    9    37           0.1600456832           4.3550644484      B1        B1 (2)
   10     6           0.1720238339           4.6810064973      A1        A1 (1)
   11    56           0.1816591050           4.9431955537      B2        B2 (3)
   12    57           0.2250567826           6.1241063981      B2        B2 (3)
   13     7           0.2423622404           6.5950118439      A1        A1 (1)
   14    81           0.2630205519           7.1571530791      A2        A2 (4)
   15    38           0.3037111049           8.2643993173      B1        B1 (2)
   16     8           0.3121931236           8.4952067811      A1        A1 (1)
   17    58           0.3639229655           9.9028473426      B2        B2 (3)
   18     9           0.4276397916          11.6366703261      A1        A1 (1)
   19    59           0.4580137041          12.4631865050      B2        B2 (3)
   20    60           0.6004783165          16.3398456930      B2        B2 (3)
   21    10           0.6483841871          17.6434307066      A1        A1 (1)
   22    11           0.7108667282          19.3436670884      A1        A1 (1)
   23    82           0.7196203898          19.5818663288      A2        A2 (4)
   24    39           0.7324300014          19.9304335820      B1        B1 (2)
   25    12           0.8116168032          22.0852160061      A1        A1 (1)
   26    40           0.8387734288          22.8241853574      B1        B1 (2)
   27    13           0.8996472093          24.4806451373      A1        A1 (1)
   28    61           0.9024667534          24.5573688322      B2        B2 (3)
   29    83           0.9140296291          24.8720106770      A2        A2 (4)
   30    62           0.9261247751          25.2011363326      B2        B2 (3)
   31    41           0.9314314511          25.3455383267      B1        B1 (2)
   32    14           0.9687954576          26.3622646324      A1        A1 (1)
   33    15           1.0076795018          27.4203532669      A1        A1 (1)
   34    63           1.0307554757          28.0482824407      B2        B2 (3)
   35    42           1.0777276525          29.3264603533      B1        B1 (2)
   36    64           1.1045574377          30.0565359236      B2        B2 (3)
   37    16           1.1581641979          31.5152500288      A1        A1 (1)
   38    84           1.1591754528          31.5427676738      A2        A2 (4)
   39    65           1.2766117500          34.7383717810      B2        B2 (3)
   40    85           1.5009700436          40.8434713280      A2        A2 (4)
   41    43           1.5710738984          42.7510941991      B1        B1 (2)
   42    17           1.5818697573          43.0448644551      A1        A1 (1)
   43    66           1.7355558907          47.2268767537      B2        B2 (3)
   44    18           1.8172362766          49.4495130522      A1        A1 (1)
   45    67           1.9492037168          53.0405296612      B2        B2 (3)
   46    19           2.0673816684          56.2563152134      A1        A1 (1)
   47    44           2.2528698569          61.3037054256      B1        B1 (2)
   48    86           2.3073786493          62.7869650753      A2        A2 (4)
   49    20           2.3243072153          63.2476147739      A1        A1 (1)
   50    21           2.3976069155          65.2422010192      A1        A1 (1)
   51    45           2.4002953259          65.3153563872      B1        B1 (2)
   52    68           2.4386169791          66.3581415853      B2        B2 (3)
   53    22           2.4953111957          67.9008696486      A1        A1 (1)
   54    23           2.7131833640          73.8294727529      A1        A1 (1)
   55    46           2.7145589178          73.8669034749      B1        B1 (2)
   56    69           2.7222827862          74.0770806172      B2        B2 (3)
   57    87           2.8559762391          77.7150644231      A2        A2 (4)
   58    70           2.8591147643          77.8004680369      B2        B2 (3)
   59    71           3.5580897142          96.8205433855      B2        B2 (3)
   60    24           3.7040882451         100.7933653846      A1        A1 (1)
   61    88           3.9723590603         108.0933853913      A2        A2 (4)
   62    47           4.0390642557         109.9085260399      B1        B1 (2)
   63    72           4.1642128526         113.3139924910      B2        B2 (3)
   64    25           4.1689369276         113.4425411060      A1        A1 (1)
   65    48           4.2948667661         116.8692662241      B1        B1 (2)
   66    89           4.3634864377         118.7365024180      A2        A2 (4)
   67    49           4.3704310112         118.9254738693      B1        B1 (2)
   68    73           4.4499592460         121.0895471580      B2        B2 (3)
   69    26           4.4636507726         121.4621125371      A1        A1 (1)
   70    27           4.6296121084         125.9781500757      A1        A1 (1)
   71    74           4.6811751908         127.3812528783      B2        B2 (3)
   72    75           4.9980063281         136.0026664288      B2        B2 (3)
   73    90           5.0555649757         137.5689168585      A2        A2 (4)
   74    28           5.1527858225         140.2144305940      A1        A1 (1)
   75    76           5.2438154227         142.6914719466      B2        B2 (3)
   76    50           5.3647584643         145.9824994218      B1        B1 (2)
   77    29           5.6373755646         153.4007878573      A1        A1 (1)
   78    30           6.0529274697         164.7085300711      A1        A1 (1)
   79    77           6.5578866450         178.4491677905      B2        B2 (3)
   80    51           6.6927473989         182.1189154709      B1        B1 (2)
   81    31           6.7842070883         184.6076601443      A1        A1 (1)
   82    52           7.0930191802         193.0108643763      B1        B1 (2)
   83    91           7.1870813786         195.5704269201      A2        A2 (4)
   84    53           7.2179591998         196.4106551525      B1        B1 (2)
   85    32           7.2751411214         197.9666543447      A1        A1 (1)
   86    78           7.2951469700         198.5110411613      B2        B2 (3)
   87    92           7.3649571853         200.4106736924      A2        A2 (4)
   88    33           7.4267516891         202.0921876290      A1        A1 (1)
   89    79           7.7615766854         211.2032389762      B2        B2 (3)
   90    34           7.8830044606         214.5074567224      A1        A1 (1)
   91    80           8.5284425921         232.0707211791      B2        B2 (3)
   92    35          14.5354715246         395.5302885560      A1        A1 (1)


  VSCF finished.

 @CHECKOUT-I, Total execution time (CPU/WALL):        0.78/       0.52 seconds.
--executable xvscf finished with status     0 in        0.54 seconds (walltime).
 --invoking executable--
/home/qc/cfour_v2.1_intel_2017_eland2/bin/xvtran
 @GETMEM-I,  Allocated   30517 MB of main memory.
  Full RHF integral transformation
  The following   1 MOs will be dropped:
    1
  There are  91 active molecular orbitals.
  Transformation of IIII integrals :
  1 pass through the AO integral file was required.
      262925 AO integrals were read.
      266728 MO integrals were written to HF2.
  Transformation of IIJJ integrals :
  1 pass through the AO integral file was required.
      466389 AO integrals were read.
      480525 MO integrals were written to HF2.
  Transformation of IJIJ integrals :
  1 pass through the AO integral file was required.
      865293 AO integrals were read.
      887262 MO integrals were written to HF2.
  Transformation of IJKL integrals :
  1 pass through the AO integral file was required.
      575256 AO integrals were read.
      594864 MO integrals were written to HF2.
  Summary of active molecular orbitals: 
------------------------------------------------------------------------
 
  Index      Eigenvalue    Symmetry    Index      Eigenvalue    Symmetry
------------------------------------------------------------------------
     1        -1.3278547        1        47         4.0390643        2
     2        -0.5667387        1        48         4.2948668        2
     3        -0.5051593        2        49         4.3704310        2
     4        -0.7016543        3        50         5.3647585        2
     5         0.0290930        1        51         6.6927474        2
     6         0.1363243        1        52         7.0930192        2
     7         0.1720238        1        53         7.2179592        2
     8         0.2423622        1        54         0.0471695        3
     9         0.3121931        1        55         0.1816591        3
    10         0.4276398        1        56         0.2250568        3
    11         0.6483842        1        57         0.3639230        3
    12         0.7108667        1        58         0.4580137        3
    13         0.8116168        1        59         0.6004783        3
    14         0.8996472        1        60         0.9024668        3
    15         0.9687955        1        61         0.9261248        3
    16         1.0076795        1        62         1.0307555        3
    17         1.1581642        1        63         1.1045574        3
    18         1.5818698        1        64         1.2766117        3
    19         1.8172363        1        65         1.7355559        3
    20         2.0673817        1        66         1.9492037        3
    21         2.3243072        1        67         2.4386170        3
    22         2.3976069        1        68         2.7222828        3
    23         2.4953112        1        69         2.8591148        3
    24         2.7131834        1        70         3.5580897        3
    25         3.7040882        1        71         4.1642129        3
    26         4.1689369        1        72         4.4499592        3
    27         4.4636508        1        73         4.6811752        3
    28         4.6296121        1        74         4.9980063        3
    29         5.1527858        1        75         5.2438154        3
    30         5.6373756        1        76         6.5578866        3
    31         6.0529275        1        77         7.2951470        3
    32         6.7842071        1        78         7.7615767        3
    33         7.2751411        1        79         8.5284426        3
    34         7.4267517        1        80         0.2630206        4
    35         7.8830045        1        81         0.7196204        4
    36        14.5354715        1        82         0.9140296        4
    37         0.1600457        2        83         1.1591755        4
    38         0.3037111        2        84         1.5009700        4
    39         0.7324300        2        85         2.3073786        4
    40         0.8387734        2        86         2.8559762        4
    41         0.9314315        2        87         3.9723591        4
    42         1.0777277        2        88         4.3634864        4
    43         1.5710739        2        89         5.0555650        4
    44         2.2528699        2        90         7.1870814        4
    45         2.4002953        2        91         7.3649572        4
    46         2.7145589        2
------------------------------------------------------------------------
  -1.32785465328073      -0.566738652129797      -0.505159342866261     
 -0.701654290131832       2.909298144049698E-002  0.136324255637398     
  0.172023833867674       0.242362240353542       0.312193123598133     
  0.427639791593458       0.648384187134197       0.710866728238842     
  0.811616803211502       0.899647209310531       0.968795457579633     
   1.00767950176636        1.15816419788671        1.58186975731401     
   1.81723627664619        2.06738166841428        2.32430721526342     
   2.39760691546518        2.49531119570328        2.71318336402056     
   3.70408824509117        4.16893692755102        4.46365077260688     
   4.62961210842717        5.15278582249551        5.63737556456856     
   6.05292746972629        6.78420708828256        7.27514112144200     
   7.42675168910944        7.88300446064030        14.5354715246126     
  0.160045683249722       0.303711104863805       0.732430001407115     
  0.838773428823093       0.931431451099905        1.07772765251149     
   1.57107389839983        2.25286985687153        2.40029532593513     
   2.71455891782781        4.03906425572877        4.29486676609471     
   4.37043101121064        5.36475846434761        6.69274739890417     
   7.09301918021022        7.21795919984451       4.716951382405557E-002
  0.181659104978767       0.225056782599344       0.363922965510502     
  0.458013704109834       0.600478316476534       0.902466753387050     
  0.926124775140442        1.03075547569013        1.10455743766579     
   1.27661174995731        1.73555589069005        1.94920371675128     
   2.43861697914682        2.72228278615186        2.85911476433419     
   3.55808971423142        4.16421285258965        4.44995924602616     
   4.68117519075816        4.99800632807300        5.24381542272561     
   6.55788664498953        7.29514697004773        7.76157668544763     
   8.52844259212053       0.263020551872772       0.719620389781469     
  0.914029629121561        1.15917545279123        1.50097004358914     
   2.30737864930914        2.85597623908661        3.97235906026388     
   4.36348643773929        5.05556497574007        7.18708137860039     
   7.36495718525064     
 @CHECKOUT-I, Total execution time (CPU/WALL):        0.91/       0.49 seconds.
--executable xvtran finished with status     0 in        0.51 seconds (walltime).
 --invoking executable--
/home/qc/cfour_v2.1_intel_2017_eland2/bin/xintprc
 @GETMEM-I,  Allocated   30517 MB of main memory.
  @GMOIAA-I, Processing MO integrals for spin case AA.
  @GMOIAA-I, Generation of integral list completed.
                      TYPE                NUMBER
                      ----               --------
                      PPPP               1862118
                      PPPH                340336
                      PPHH                 15793
                      PHPH                 10160
                      PHHH                   950
                      HHHH                    22

                     TOTAL               2229379

  @FORMT2-I, Second-order MP correlation energies:
            ------------------------------------------------
            E(SCF)                  =    -76.053083200130 a.u.
            E2(AA)                  =     -0.032952196920 a.u.
            E2(AB)                  =     -0.205846522340 a.u.
            E2(TOT)                 =     -0.271750916180 a.u.
            Total MP2 energy        =    -76.324834116310 a.u.
            ------------------------------------------------
   Largest T2 amplitudes for spin case AB:
       _       _                 _       _                 _       _
   i   j   a   b             i   j   a   b             i   j   a   b
-----------------------------------------------------------------------------
[  4   4  58  58]-0.02156 [  2   2  14  14]-0.01919 [  3   3  42  42]-0.01624
[  3   3  41  41]-0.01480 [  4   2  58  14]-0.01398 [  2   4  14  58]-0.01398
[  4   4  58  62]-0.01363 [  4   4  62  58]-0.01363 [  3   3  42  41]-0.01346
[  3   3  41  42]-0.01346 [  4   4  58  55]-0.01325 [  4   4  55  58]-0.01325
[  2   3  14  41]-0.01299 [  3   2  41  14]-0.01299 [  4   4  59  59]-0.01268
-----------------------------------------------------------------------------
   Norm of T2AB vector (    31238 symmetry allowed elements):  0.2227581598.
-----------------------------------------------------------------------------
 @CHECKOUT-I, Total execution time (CPU/WALL):        0.52/       0.33 seconds.
--executable xintprc finished with status     0 in        0.35 seconds (walltime).
  calling xvcc 
 --invoking executable--
/home/qc/cfour_v2.1_intel_2017_eland2/bin/xvcc
 @GETMEM-I,  Allocated   30517 MB of main memory.
   CC3 energy will be calculated.
   The total correlation energy is -0.271750916180 a.u.
   The total correlation energy is -0.279384321659 a.u.
  Convergence information after     1 iterations: 
  Largest element of residual vector : -0.10338276E-01.
  Largest element of DIIS residual   : -0.10338276E-01.
   The total correlation energy is -0.284207918335 a.u.
  Convergence information after     2 iterations: 
  Largest element of residual vector : -0.16093417E-02.
  Largest element of DIIS residual   : -0.17981148E-02.
   The total correlation energy is -0.285123929227 a.u.
  Convergence information after     3 iterations: 
  Largest element of residual vector : -0.18516230E-02.
  Largest element of DIIS residual   : -0.11556072E-02.
   The total correlation energy is -0.285626676148 a.u.
  Convergence information after     4 iterations: 
  Largest element of residual vector : -0.25853211E-03.
  Largest element of DIIS residual   : -0.14000329E-03.
   The total correlation energy is -0.285664113674 a.u.
  Convergence information after     5 iterations: 
  Largest element of residual vector : -0.14810837E-03.
  Largest element of DIIS residual   :  0.74816335E-04.
   The total correlation energy is -0.285667718024 a.u.
  Convergence information after     6 iterations: 
  Largest element of residual vector :  0.36627420E-04.
  Largest element of DIIS residual   :  0.26187900E-04.
   The total correlation energy is -0.285666999221 a.u.
  Convergence information after     7 iterations: 
  Largest element of residual vector :  0.19059962E-04.
  Largest element of DIIS residual   :  0.10870428E-04.
   The total correlation energy is -0.285666931816 a.u.
  Convergence information after     8 iterations: 
  Largest element of residual vector :  0.53521049E-05.
  Largest element of DIIS residual   :  0.29647072E-05.
   The total correlation energy is -0.285667183497 a.u.
  Convergence information after     9 iterations: 
  Largest element of residual vector :  0.19300286E-05.
  Largest element of DIIS residual   :  0.14879290E-05.
   The total correlation energy is -0.285667210073 a.u.
  Convergence information after    10 iterations: 
  Largest element of residual vector :  0.62471354E-06.
  Largest element of DIIS residual   :  0.38588094E-06.
   The total correlation energy is -0.285667224664 a.u.
  Convergence information after    11 iterations: 
  Largest element of residual vector :  0.21524650E-06.
  Largest element of DIIS residual   :  0.95063640E-07.
   The total correlation energy is -0.285667227562 a.u.
  Convergence information after    12 iterations: 
  Largest element of residual vector :  0.61171630E-07.
  Largest element of DIIS residual   :  0.28064128E-07.
   The total correlation energy is -0.285667228210 a.u.
  Convergence information after    13 iterations: 
  Largest element of residual vector :  0.11431665E-07.
  Largest element of DIIS residual   :  0.92042043E-08.
   The total correlation energy is -0.285667228664 a.u.
  Convergence information after    14 iterations: 
  Largest element of residual vector :  0.77911078E-08.
  Largest element of DIIS residual   :  0.39889128E-08.
   The total correlation energy is -0.285667228927 a.u.
  Convergence information after    15 iterations: 
  Largest element of residual vector :  0.24808660E-08.
  Largest element of DIIS residual   :  0.14978103E-08.
   The total correlation energy is -0.285667228983 a.u.
  Convergence information after    16 iterations: 
  Largest element of residual vector :  0.10881950E-08.
  Largest element of DIIS residual   :  0.34840867E-09.
   The total correlation energy is -0.285667229006 a.u.
  Convergence information after    17 iterations: 
  Largest element of residual vector :  0.30219494E-09.
  Largest element of DIIS residual   :  0.11595677E-09.
  Amplitude equations converged in    17iterations.
   The total correlation energy is -0.285667229013 a.u.
   The CC iterations have converged.

   Largest T1 amplitudes for spin case AA:
   i       a                 i       a                 i       a    
-----------------------------------------------------------------------------
[  3      37    ]-0.01533 [  3      38    ]-0.01273 [  2       6    ] 0.00888
[  2       9    ] 0.00790 [  4      66    ]-0.00545 [  2       5    ] 0.00403
[  3      47    ]-0.00390 [  3      40    ] 0.00371 [  4      62    ]-0.00352
[  2      20    ]-0.00347 [  4      73    ]-0.00340 [  2      28    ]-0.00336
[  3      41    ] 0.00299 [  2      13    ] 0.00280 [  1      14    ]-0.00277
-----------------------------------------------------------------------------
   Norm of T1AA vector (      107 symmetry allowed elements):  0.0283466898.
-----------------------------------------------------------------------------
   Largest T2 amplitudes for spin case AB:
       _       _                 _       _                 _       _
   i   j   a   b             i   j   a   b             i   j   a   b
-----------------------------------------------------------------------------
[  4   4  58  58]-0.02486 [  2   2  14  14]-0.02098 [  3   3  42  42]-0.01721
[  3   3  41  41]-0.01586 [  4   4  62  58]-0.01576 [  4   4  58  62]-0.01576
[  4   4  59  59]-0.01502 [  4   4  58  55]-0.01496 [  4   4  55  58]-0.01496
[  3   3  37  37]-0.01472 [  3   3  42  41]-0.01469 [  3   3  41  42]-0.01469
[  2   2  59  59]-0.01419 [  4   2  58  14]-0.01403 [  2   4  14  58]-0.01403
-----------------------------------------------------------------------------
   Norm of T2AB vector (    31238 symmetry allowed elements):  0.2507259334.
-----------------------------------------------------------------------------
       Summary of iterative solution of CC equations 
      -----------------------------------------------------------
                       Correlation           Total
       Iteration         Energy              Energy
      -----------------------------------------------------------
            0        -0.271750916180     -76.324834116310  DIIS 
            1        -0.279384321659     -76.332467521788  DIIS 
            2        -0.284207918335     -76.337291118464  DIIS 
            3        -0.285123929227     -76.338207129357  DIIS 
            4        -0.285626676148     -76.338709876278  DIIS 
            5        -0.285664113674     -76.338747313803  DIIS 
            6        -0.285667718024     -76.338750918154  DIIS 
            7        -0.285666999221     -76.338750199351  DIIS 
            8        -0.285666931816     -76.338750131946  DIIS 
            9        -0.285667183497     -76.338750383627  DIIS 
           10        -0.285667210073     -76.338750410203  DIIS 
           11        -0.285667224664     -76.338750424794  DIIS 
           12        -0.285667227562     -76.338750427691  DIIS 
           13        -0.285667228210     -76.338750428340  DIIS 
           14        -0.285667228664     -76.338750428793  DIIS 
           15        -0.285667228927     -76.338750429057  DIIS 
           16        -0.285667228983     -76.338750429113  DIIS 
           17        -0.285667229013     -76.338750429143  DIIS 
      -----------------------------------------------------------
      A miracle has come to pass. The CC iterations have converged.
      The reference energy is       -76.05308320012978 a.u.
      The correlation energy is      -0.28566722901338 a.u.
      The total energy is           -76.33875042914315 a.u.
 @CHECKOUT-I, Total execution time (CPU/WALL):       25.58/      12.82 seconds.
--executable xvcc finished with status     0 in       12.89 seconds (walltime).
 --invoking executable--
/home/qc/cfour_v2.1_intel_2017_eland2/bin/xlambda
 @GETMEM-I,  Allocated   30517 MB of main memory.
 Hbar is calculated for a CCSD wave function.
 Calculation of Hbar completed.
 @CHECKOUT-I, Total execution time (CPU/WALL):        0.42/       0.24 seconds.
--executable xlambda finished with status     0 in        0.26 seconds (walltime).
 --invoking executable--
/home/qc/cfour_v2.1_intel_2017_eland2/bin/xvip
 @GETMEM-I,  Allocated   30517 MB of main memory.
 IPs are calculated using the EOMIP-CCSD method.
  Summary of active alpha molecular orbitals:
------------------------------------------------------------------------------
Orbital Symm. Eigenvalue  <xx>     <yy>     <zz>     <xy>     <xz>     <yz>
------------------------------------------------------------------------------
    1     1      -1.3279   0.000    0.000    0.000    0.000    0.000    0.000
    2     1      -0.5667   0.000    0.000    0.000    0.000    0.000    0.000
    3     2      -0.5052   0.000    0.000    0.000    0.000    0.000    0.000
    4     3      -0.7017   0.000    0.000    0.000    0.000    0.000    0.000
    5     1       0.0291   0.000    0.000    0.000    0.000    0.000    0.000
    6     1       0.1363   0.000    0.000    0.000    0.000    0.000    0.000
    7     1       0.1720   0.000    0.000    0.000    0.000    0.000    0.000
    8     1       0.2424   0.000    0.000    0.000    0.000    0.000    0.000
    9     1       0.3122   0.000    0.000    0.000    0.000    0.000    0.000
   10     1       0.4276   0.000    0.000    0.000    0.000    0.000    0.000
   11     1       0.6484   0.000    0.000    0.000    0.000    0.000    0.000
   12     1       0.7109   0.000    0.000    0.000    0.000    0.000    0.000
   13     1       0.8116   0.000    0.000    0.000    0.000    0.000    0.000
   14     1       0.8996   0.000    0.000    0.000    0.000    0.000    0.000
   15     1       0.9688   0.000    0.000    0.000    0.000    0.000    0.000
   16     1       1.0077   0.000    0.000    0.000    0.000    0.000    0.000
   17     1       1.1582   0.000    0.000    0.000    0.000    0.000    0.000
   18     1       1.5819   0.000    0.000    0.000    0.000    0.000    0.000
   19     1       1.8172   0.000    0.000    0.000    0.000    0.000    0.000
   20     1       2.0674   0.000    0.000    0.000    0.000    0.000    0.000
   21     1       2.3243   0.000    0.000    0.000    0.000    0.000    0.000
   22     1       2.3976   0.000    0.000    0.000    0.000    0.000    0.000
   23     1       2.4953   0.000    0.000    0.000    0.000    0.000    0.000
   24     1       2.7132   0.000    0.000    0.000    0.000    0.000    0.000
   25     1       3.7041   0.000    0.000    0.000    0.000    0.000    0.000
   26     1       4.1689   0.000    0.000    0.000    0.000    0.000    0.000
   27     1       4.4637   0.000    0.000    0.000    0.000    0.000    0.000
   28     1       4.6296   0.000    0.000    0.000    0.000    0.000    0.000
   29     1       5.1528   0.000    0.000    0.000    0.000    0.000    0.000
   30     1       5.6374   0.000    0.000    0.000    0.000    0.000    0.000
   31     1       6.0529   0.000    0.000    0.000    0.000    0.000    0.000
   32     1       6.7842   0.000    0.000    0.000    0.000    0.000    0.000
   33     1       7.2751   0.000    0.000    0.000    0.000    0.000    0.000
   34     1       7.4268   0.000    0.000    0.000    0.000    0.000    0.000
   35     1       7.8830   0.000    0.000    0.000    0.000    0.000    0.000
   36     1      14.5355   0.000    0.000    0.000    0.000    0.000    0.000
   37     2       0.1600   0.000    0.000    0.000    0.000    0.000    0.000
   38     2       0.3037   0.000    0.000    0.000    0.000    0.000    0.000
   39     2       0.7324   0.000    0.000    0.000    0.000    0.000    0.000
   40     2       0.8388   0.000    0.000    0.000    0.000    0.000    0.000
   41     2       0.9314   0.000    0.000    0.000    0.000    0.000    0.000
   42     2       1.0777   0.000    0.000    0.000    0.000    0.000    0.000
   43     2       1.5711   0.000    0.000    0.000    0.000    0.000    0.000
   44     2       2.2529   0.000    0.000    0.000    0.000    0.000    0.000
   45     2       2.4003   0.000    0.000    0.000    0.000    0.000    0.000
   46     2       2.7146   0.000    0.000    0.000    0.000    0.000    0.000
   47     2       4.0391   0.000    0.000    0.000    0.000    0.000    0.000
   48     2       4.2949   0.000    0.000    0.000    0.000    0.000    0.000
   49     2       4.3704   0.000    0.000    0.000    0.000    0.000    0.000
   50     2       5.3648   0.000    0.000    0.000    0.000    0.000    0.000
   51     2       6.6927   0.000    0.000    0.000    0.000    0.000    0.000
   52     2       7.0930   0.000    0.000    0.000    0.000    0.000    0.000
   53     2       7.2180   0.000    0.000    0.000    0.000    0.000    0.000
   54     3       0.0472   0.000    0.000    0.000    0.000    0.000    0.000
   55     3       0.1817   0.000    0.000    0.000    0.000    0.000    0.000
   56     3       0.2251   0.000    0.000    0.000    0.000    0.000    0.000
   57     3       0.3639   0.000    0.000    0.000    0.000    0.000    0.000
   58     3       0.4580   0.000    0.000    0.000    0.000    0.000    0.000
   59     3       0.6005   0.000    0.000    0.000    0.000    0.000    0.000
   60     3       0.9025   0.000    0.000    0.000    0.000    0.000    0.000
   61     3       0.9261   0.000    0.000    0.000    0.000    0.000    0.000
   62     3       1.0308   0.000    0.000    0.000    0.000    0.000    0.000
   63     3       1.1046   0.000    0.000    0.000    0.000    0.000    0.000
   64     3       1.2766   0.000    0.000    0.000    0.000    0.000    0.000
   65     3       1.7356   0.000    0.000    0.000    0.000    0.000    0.000
   66     3       1.9492   0.000    0.000    0.000    0.000    0.000    0.000
   67     3       2.4386   0.000    0.000    0.000    0.000    0.000    0.000
   68     3       2.7223   0.000    0.000    0.000    0.000    0.000    0.000
   69     3       2.8591   0.000    0.000    0.000    0.000    0.000    0.000
   70     3       3.5581   0.000    0.000    0.000    0.000    0.000    0.000
   71     3       4.1642   0.000    0.000    0.000    0.000    0.000    0.000
   72     3       4.4500   0.000    0.000    0.000    0.000    0.000    0.000
   73     3       4.6812   0.000    0.000    0.000    0.000    0.000    0.000
   74     3       4.9980   0.000    0.000    0.000    0.000    0.000    0.000
   75     3       5.2438   0.000    0.000    0.000    0.000    0.000    0.000
   76     3       6.5579   0.000    0.000    0.000    0.000    0.000    0.000
   77     3       7.2951   0.000    0.000    0.000    0.000    0.000    0.000
   78     3       7.7616   0.000    0.000    0.000    0.000    0.000    0.000
   79     3       8.5284   0.000    0.000    0.000    0.000    0.000    0.000
   80     4       0.2630   0.000    0.000    0.000    0.000    0.000    0.000
   81     4       0.7196   0.000    0.000    0.000    0.000    0.000    0.000
   82     4       0.9140   0.000    0.000    0.000    0.000    0.000    0.000
   83     4       1.1592   0.000    0.000    0.000    0.000    0.000    0.000
   84     4       1.5010   0.000    0.000    0.000    0.000    0.000    0.000
   85     4       2.3074   0.000    0.000    0.000    0.000    0.000    0.000
   86     4       2.8560   0.000    0.000    0.000    0.000    0.000    0.000
   87     4       3.9724   0.000    0.000    0.000    0.000    0.000    0.000
   88     4       4.3635   0.000    0.000    0.000    0.000    0.000    0.000
   89     4       5.0556   0.000    0.000    0.000    0.000    0.000    0.000
   90     4       7.1871   0.000    0.000    0.000    0.000    0.000    0.000
   91     4       7.3650   0.000    0.000    0.000    0.000    0.000    0.000
------------------------------------------------------------------------------
  nsizec is                    331
  @DOEOMIP2-I, right-hand eigenvectors will be computed.
  Beginning symmetry block   2.   1 roots requested.
  1   1  0.5846534481D+00  0.1590922913D+02  0.0000000000D+00  0.4600189784D+00
  2   2  0.5272824123D+00  0.1434808388D+02  0.9944816608D+00  0.8941794955D-01
  3   3  0.5065482379D+00  0.1378387831D+02  0.9968084729D+00  0.2163809178D-01
  4   4  0.5055580523D+00  0.1375693399D+02  0.9998682526D+00  0.4253762004D-02
  L-O-C-K-I-N-G O-N R-O-O-T 
  5   5  0.5054448422D+00  0.1375385339D+02  0.9999964957D+00  0.1028378770D-02
  6   6  0.5054389242D+00  0.1375369235D+02  0.9999997727D+00  0.1804442929D-03
  7   7  0.5054391612D+00  0.1375369880D+02  0.9999999909D+00  0.4872404500D-04
  8   8  0.5054387002D+00  0.1375368626D+02  0.9999999995D+00  0.8984229777D-05
  9   9  0.5054387604D+00  0.1375368790D+02  0.1000000000D+01  0.2153621187D-05
 10  10  0.5054387530D+00  0.1375368769D+02  0.1000000000D+01  0.4020264445D-06
 11  11  0.5054387553D+00  0.1375368776D+02  0.1000000000D+01  0.7021964415D-07
 12  12  0.5054387552D+00  0.1375368775D+02  0.1000000000D+01  0.1197894344D-07
 13  13  0.5054387553D+00  0.1375368776D+02  0.1000000000D+01  0.2276749573D-08
 14  14  0.5054387553D+00  0.1375368775D+02  0.1000000000D+01  0.3729235936D-09
 15  15  0.5054387553D+00  0.1375368775D+02  0.1000000000D+01  0.7304394361D-10
  Converged eigenvalue:   0.505438755264974       a.u.
   Total EOMIP-CCSD electronic energy     -75.83331167387817 a.u.
          --------------------------------
             I    J    A       C(IJA)
          --------------------------------
              0    3    0   -0.6977075462
              3    3   37   -0.0371667879
              3    3   41    0.0315277457
              3    3   42    0.0277687499
              4    3   58    0.0275664118
              3    3   38   -0.0263021561
              2    3   14    0.0235717766
              2    3    6    0.0228565958
              4    3   55    0.0221689968
              2    3    9    0.0204380708
              3    3   40    0.0160091472
              1    3   10    0.0159438322
              4    3   62    0.0148930816
              1    3    7    0.0132506936
              2    3   10    0.0131225805
          --------------------------------

  Eigenvector is saved on CCRE_1_1  

  VIP all done  ! 
 @CHECKOUT-I, Total execution time (CPU/WALL):        0.18/       0.15 seconds.
--executable xvip finished with status     0 in        0.17 seconds (walltime).
  The final electronic energy is       -75.833311673878171 a.u. 
  This computation required                           15.68 seconds (walltime).
 
Timing info
25.200u 4.283s 0:15.69 187.8% 0+0k 4056+501904io 32pf+0w
 
Scratch space info (BEFORE cleaning //scratch/mdavis)
 
Cleaning up ...
Filesystem      Size  Used Avail Use% Mounted on
/dev/sda9       785G   93G  653G  13% /scratch
 
Scratch space info (AFTER cleaning //scratch/mdavis)
Filesystem      Size  Used Avail Use% Mounted on
/dev/sda9       785G   93G  653G  13% /scratch
