
    -----------------------------------------------------------------------
          Psi4: An Open-Source Ab Initio Electronic Structure Package
                               Psi4 1.2 release

                         Git: Rev {HEAD} 9d4a61c 


    R. M. Parrish, L. A. Burns, D. G. A. Smith, A. C. Simmonett,
    A. E. DePrince III, E. G. Hohenstein, U. Bozkaya, A. Yu. Sokolov,
    R. Di Remigio, R. M. Richard, J. F. Gonthier, A. M. James,
    H. R. McAlexander, A. Kumar, M. Saitow, X. Wang, B. P. Pritchard,
    P. Verma, H. F. Schaefer III, K. Patkowski, R. A. King, E. F. Valeev,
    F. A. Evangelista, J. M. Turney, T. D. Crawford, and C. D. Sherrill,
    J. Chem. Theory Comput. 13(7) pp 3185--3197 (2017).
    (doi: 10.1021/acs.jctc.7b00174)


                         Additional Contributions by
    P. Kraus, H. Kruse, M. H. Lechner, M. C. Schieber, and R. A. Shaw

    -----------------------------------------------------------------------


    Psi4 started on: Saturday, 05 November 2022 10:19AM

    Process ID: 26303
    Host:       node2
    PSIDATADIR: /home/qc/psi4conda/share/psi4
    Memory:     500.0 MiB
    Threads:    4
    
  ==> Input File <==

--------------------------------------------------------------------------
#h2o SPECIAL eom-cc3
memory 31950 mb

molecule h2o{
1 2
H        0.0000000000       -1.5390775366       -0.9724937876
O        0.0000000000        0.0093613158        0.1220999441
H        0.0000000000        1.5297162208       -0.9658703465

units bohr
}
 
set globals {
 reference rohf
 basis aug-cc-pvtz-dk
 freeze_core true
 cachelevel=0
 relativistic x2c
 maxiter=500
 dertype none
 ints_tolerance 20
 roots_per_irrep = [0,1]
}

set scf d_convergence 12
set ccenergy r_convergence 12
set cceom r_convergence 8

energy('eom-cc3')--------------------------------------------------------------------------

  Memory set to  29.756 GiB by Python driver.

*** tstart() called on node2
*** at Sat Nov  5 10:19:19 2022

   => Loading Basis Set <=

    Name: AUG-CC-PVTZ-DK
    Role: ORBITAL
    Keyword: BASIS
    atoms 1, 3 entry H          line    45 file /home/qc/psi4conda/share/psi4/basis/aug-cc-pvtz-dk.gbs 
    atoms 2    entry O          line   324 file /home/qc/psi4conda/share/psi4/basis/aug-cc-pvtz-dk.gbs 


         ---------------------------------------------------------
                                   SCF
            by Justin Turney, Rob Parrish, Andy Simmonett
                             and Daniel Smith
                             ROHF Reference
                        4 Threads,  30469 MiB Core
         ---------------------------------------------------------

  ==> Geometry <==

    Molecular point group: cs
    Full point group: Cs

    Geometry (in Bohr), charge = 1, multiplicity = 2:

       Center              X                  Y                   Z               Mass       
    ------------   -----------------  -----------------  -----------------  -----------------
         H            1.546867346693     0.972463043718     0.000000000000     1.007825032070
         O           -0.001571505707    -0.122130687982     0.000000000000    15.994914619560
         H           -1.521926410707     0.965839602618     0.000000000000     1.007825032070

  Running in cs symmetry.

  Rotational constants: A =     28.24598  B =     12.68299  C =      8.75281 [cm^-1]
  Rotational constants: A = 846793.07779  B = 380226.52983  C = 262402.64740 [MHz]
  Nuclear repulsion =    8.823833678195580

  Charge       = 1
  Multiplicity = 2
  Electrons    = 9
  Nalpha       = 5
  Nbeta        = 4

  ==> Algorithm <==

  SCF Algorithm Type is PK.
  DIIS enabled.
  MOM disabled.
  Fractional occupation disabled.
  Guess Type is GWH.
  Energy threshold   = 1.00e-08
  Density threshold  = 1.00e-12
  Integral threshold = 1.00e-20

  ==> Primary Basis <==

  Basis Set: AUG-CC-PVTZ-DK
    Blend: AUG-CC-PVTZ-DK
    Number of shells: 32
    Number of basis function: 92
    Number of Cartesian functions: 105
    Spherical Harmonics?: true
    Max angular momentum: 3

   => Loading Basis Set <=

    Name: (AUG-CC-PVTZ-DK AUX)
    Role: DECON
    Keyword: BASIS_RELATIVISTIC
    atoms 1, 3 entry H          line    45 file /home/qc/psi4conda/share/psi4/basis/aug-cc-pvtz-dk.gbs func decontract
    atoms 2    entry O          line   324 file /home/qc/psi4conda/share/psi4/basis/aug-cc-pvtz-dk.gbs func decontract

  ==> Pre-Iterations <==

   -------------------------------------------------------
    Irrep   Nso     Nmo     Nalpha   Nbeta   Ndocc  Nsocc
   -------------------------------------------------------
     A'        62      62       0       0       0       0
     A"        30      30       0       0       0       0
   -------------------------------------------------------
    Total      92      92       5       4       4       1
   -------------------------------------------------------

 OEINTS: Using relativistic (X2C) overlap, kinetic, and potential integrals.
         ------------------------------------------------------------
         Spin-Free X2C Integrals at the One-Electron Level (SFX2C-1e)
                 by Prakash Verma and Francesco A. Evangelista
         ------------------------------------------------------------

  ==> X2C Options <==

    Computational Basis: AUG-CC-PVTZ-DK
    X2C Basis: (AUG-CC-PVTZ-DK AUX)
    The X2C Hamiltonian will be computed in the X2C Basis

    Comparing only 62 out of 76 elements of H_Dirac

    Comparing only 30 out of 32 elements of H_Dirac

    The 1-norm of |H_X2C - H_Dirac| is: 6.836568101906

    WARNING: The X2C and Dirac Hamiltonians have substatially different eigenvalues!
             This is probably caused by the recontraction of the basis set.

  ==> Integral Setup <==

  Using in-core PK algorithm.
   Calculation information:
      Number of atoms:                   3
      Number of AO shells:              32
      Number of primitives:             52
      Number of atomic orbitals:       105
      Number of basis functions:        92

      Integral cutoff                 1.00e-20
      Number of threads:                 4

  Performing in-core PK
  Using 18305562 doubles for integral storage.
  We computed 171364 shell quartets total.
  Whereas there are 139656 unique shell quartets.
    22.70 percent of shell quartets recomputed by reordering.

  ==> DiskJK: Disk-Based J/K Matrices <==

    J tasked:                  Yes
    K tasked:                  Yes
    wK tasked:                  No
    Memory (MB):             22852
    Schwarz Cutoff:          1E-20

    OpenMP threads:              4

  Minimum eigenvalue in the overlap matrix is 4.0627478323E-04.
  Using Symmetric Orthogonalization.

  SCF Guess: Generalized Wolfsberg-Helmholtz.

  ==> Iterations <==

                        Total Energy        Delta E     RMS |[F,P]|

    Occupation by irrep:
             Ap   App 
    DOCC [     4,    0 ]
    SOCC [     1,    0 ]

   @ROHF iter   1:   -70.10438001095660   -7.01044e+01   1.09343e-01 
    Occupation by irrep:
             Ap   App 
    DOCC [     4,    0 ]
    SOCC [     0,    1 ]

   @ROHF iter   2:   -72.17974775826498   -2.07537e+00   4.70785e-02 DIIS
   @ROHF iter   3:   -75.08932956625223   -2.90958e+00   2.99112e-02 DIIS
   @ROHF iter   4:   -75.66526067531325   -5.75931e-01   6.73380e-03 DIIS
   @ROHF iter   5:   -75.70480336157435   -3.95427e-02   3.50510e-04 DIIS
   @ROHF iter   6:   -75.70501712764569   -2.13766e-04   8.41743e-05 DIIS
   @ROHF iter   7:   -75.70502824130374   -1.11137e-05   1.47169e-05 DIIS
   @ROHF iter   8:   -75.70502865152628   -4.10223e-07   2.03527e-06 DIIS
   @ROHF iter   9:   -75.70502866123881   -9.71254e-09   6.11652e-07 DIIS
   @ROHF iter  10:   -75.70502866205322   -8.14410e-10   1.61449e-07 DIIS
   @ROHF iter  11:   -75.70502866210525   -5.20259e-11   2.78964e-08 DIIS
   @ROHF iter  12:   -75.70502866210721   -1.96110e-12   9.45916e-09 DIIS
   @ROHF iter  13:   -75.70502866210751   -2.98428e-13   1.44112e-09 DIIS
   @ROHF iter  14:   -75.70502866210754   -2.84217e-14   1.37124e-10 DIIS
   @ROHF iter  15:   -75.70502866210755   -1.42109e-14   2.12050e-11 DIIS
   @ROHF iter  16:   -75.70502866210752    2.84217e-14   4.19242e-12 DIIS
   @ROHF iter  17:   -75.70502866210751    1.42109e-14   8.31600e-13 DIIS

  ==> Post-Iterations <==

    Orbital Energies [Eh]
    ---------------------

    Doubly Occupied:                                                      

       1Ap   -21.118709     2Ap    -1.803450     3Ap    -1.177532  
       4Ap    -1.049718  

    Singly Occupied:                                                      

       1App   -0.687148  

    Virtual:                                                              

       5Ap    -0.180898     6Ap    -0.116387     7Ap    -0.060943  
       2App   -0.057781     8Ap    -0.041730     9Ap    -0.026769  
      10Ap     0.010384    11Ap     0.018030     3App    0.036643  
       4App    0.069568    12Ap     0.072351    13Ap     0.162987  
      14Ap     0.178418    15Ap     0.195622    16Ap     0.322748  
      17Ap     0.347914    18Ap     0.408649     5App    0.422654  
       6App    0.423015    19Ap     0.516993     7App    0.553964  
      20Ap     0.582258    21Ap     0.597702     8App    0.606850  
       9App    0.623817    22Ap     0.661142    23Ap     0.667046  
      24Ap     0.728147    25Ap     0.743172    10App    0.748390  
      26Ap     0.828858    27Ap     0.862714    11App    0.872646  
      28Ap     0.963319    12App    1.164633    13App    1.224981  
      29Ap     1.242143    30Ap     1.414487    31Ap     1.440622  
      32Ap     1.583160    33Ap     1.687099    14App    1.832606  
      15App    1.899081    34Ap     1.944740    35Ap     1.980803  
      16App    2.004422    36Ap     2.050876    37Ap     2.092446  
      17App    2.304673    38Ap     2.316372    39Ap     2.320043  
      18App    2.453259    40Ap     2.486510    41Ap     3.168049  
      42Ap     3.310778    19App    3.576263    20App    3.587700  
      43Ap     3.771496    44Ap     3.783239    21App    3.901895  
      22App    3.965667    23App    3.969805    45Ap     4.050075  
      46Ap     4.069482    47Ap     4.208767    48Ap     4.284811  
      49Ap     4.615506    24App    4.640236    50Ap     4.747912  
      51Ap     4.836112    25App    4.930168    52Ap     5.227734  
      53Ap     5.608881    54Ap     6.062147    26App    6.203711  
      55Ap     6.297024    27App    6.602188    28App    6.704900  
      29App    6.724550    56Ap     6.774691    57Ap     6.842442  
      30App    6.850195    58Ap     6.976987    59Ap     7.314441  
      60Ap     7.410477    61Ap     8.099689    62Ap    14.210710  

    Final Occupation by Irrep:
             Ap   App 
    DOCC [     4,    0 ]
    SOCC [     0,    1 ]

  Energy converged.

  @ROHF Final Energy:   -75.70502866210751

   => Energetics <=

    Nuclear Repulsion Energy =              8.8238336781955802
    One-Electron Energy =                -117.6498575054094147
    Two-Electron Energy =                  33.1209951651063221
    Total Energy =                        -75.7050286621075088



Properties will be evaluated at   0.000000,   0.000000,   0.000000 [a0]

Properties computed using the SCF density matrix

  Nuclear Dipole Moment: [e a0]
     X:     0.0124      Y:     0.9613      Z:     0.0000

  Electronic Dipole Moment: [e a0]
     X:     0.0037      Y:     0.0035      Z:     0.0000

  Dipole Moment: [e a0]
     X:     0.0161      Y:     0.9648      Z:     0.0000     Total:     0.9649

  Dipole Moment: [D]
     X:     0.0409      Y:     2.4522      Z:     0.0000     Total:     2.4526


*** tstop() called on node2 at Sat Nov  5 10:19:21 2022
Module time:
	user time   =       5.82 seconds =       0.10 minutes
	system time =       0.22 seconds =       0.00 minutes
	total time  =          2 seconds =       0.03 minutes
Total time:
	user time   =       5.82 seconds =       0.10 minutes
	system time =       0.22 seconds =       0.00 minutes
	total time  =          2 seconds =       0.03 minutes
   => Loading Basis Set <=

    Name: (AUG-CC-PVTZ-DK AUX)
    Role: DECON
    Keyword: BASIS_RELATIVISTIC
    atoms 1, 3 entry H          line    45 file /home/qc/psi4conda/share/psi4/basis/aug-cc-pvtz-dk.gbs func decontract
    atoms 2    entry O          line   324 file /home/qc/psi4conda/share/psi4/basis/aug-cc-pvtz-dk.gbs func decontract

 MINTS: Wrapper to libmints.
   by Justin Turney

   Calculation information:
      Number of threads:                 4
      Number of atoms:                   3
      Number of AO shells:              32
      Number of SO shells:              32
      Number of primitives:             52
      Number of atomic orbitals:       105
      Number of basis functions:        92

      Number of irreps:                  2
      Integral cutoff                 1.00e-20
      Number of functions per irrep: [  62   30 ]

 OEINTS: Using relativistic (X2C) overlap, kinetic, and potential integrals.
         ------------------------------------------------------------
         Spin-Free X2C Integrals at the One-Electron Level (SFX2C-1e)
                 by Prakash Verma and Francesco A. Evangelista
         ------------------------------------------------------------

  ==> X2C Options <==

    Computational Basis: AUG-CC-PVTZ-DK
    X2C Basis: (AUG-CC-PVTZ-DK AUX)
    The X2C Hamiltonian will be computed in the X2C Basis

    Comparing only 62 out of 76 elements of H_Dirac

    Comparing only 30 out of 32 elements of H_Dirac

    The 1-norm of |H_X2C - H_Dirac| is: 6.836568102419

    WARNING: The X2C and Dirac Hamiltonians have substatially different eigenvalues!
             This is probably caused by the recontraction of the basis set.

 OEINTS: Overlap, kinetic, potential, dipole, and quadrupole integrals
         stored in file 35.

      Computing two-electron integrals...done
      Computed 4405735 non-zero two-electron integrals.
        Stored in file 33.


*** tstart() called on node2
*** at Sat Nov  5 10:19:22 2022


	Wfn Parameters:
	--------------------
	Wavefunction         = CC3
	Number of irreps     = 2
	Number of MOs        = 92
	Number of active MOs = 91
	AO-Basis             = NONE
	Semicanonical        = true
	Reference            = ROHF changed to UHF for semicanonical orbitals
	Print Level          = 1

	IRREP	# MOs	# FZDC	# DOCC	# SOCC	# VIRT	# FZVR
	-----	-----	------	------	------	------	------
	 Ap	   62	    1	    3	    0	    58	    0
	 App	   30	    0	    0	    1	    29	    0
	Transforming integrals...
	IWL integrals will be deleted.
	(OO|OO)...
	Presorting SO-basis two-electron integrals.
	Sorting File: SO Ints (nn|nn) nbuckets = 1
	Transforming the one-electron integrals and constructing Fock matrices
	Starting AA/AB first half-transformation.
	Sorting AA/AB half-transformed integrals.
	Starting BB first half-transformation.
	Sorting BB half-transformed integrals.
	First half integral transformation complete.
	Starting AA second half-transformation.
	Starting AB second half-transformation.
	Starting BB second half-transformation.
	Two-electron integral transformation complete.
	(OO|OV)...
	Starting AA second half-transformation.
	Starting AB second half-transformation.
	Starting BB second half-transformation.
	Two-electron integral transformation complete.
	(OO|VV)...
	Starting AA second half-transformation.
	Starting AB second half-transformation.
	Starting BB second half-transformation.
	Two-electron integral transformation complete.
	(OV|OO)...
	Starting AA/AB first half-transformation.
	Sorting AA/AB half-transformed integrals.
	Starting BB first half-transformation.
	Sorting BB half-transformed integrals.
	First half integral transformation complete.
	Starting AA second half-transformation.
	Starting AB second half-transformation.
	Starting BB second half-transformation.
	Two-electron integral transformation complete.
	(OV|OV)...
	Starting AA second half-transformation.
	Starting AB second half-transformation.
	Starting BB second half-transformation.
	Two-electron integral transformation complete.
	(OV|VV)...
	Starting AA second half-transformation.
	Starting AB second half-transformation.
	Starting BB second half-transformation.
	Two-electron integral transformation complete.
	(VV|OO)...
	Starting AA/AB first half-transformation.
	Sorting AA/AB half-transformed integrals.
	Starting BB first half-transformation.
	Sorting BB half-transformed integrals.
	First half integral transformation complete.
	Starting AA second half-transformation.
	Starting AB second half-transformation.
	Starting BB second half-transformation.
	Two-electron integral transformation complete.
	(VV|OV)...
	Starting AA second half-transformation.
	Starting AB second half-transformation.
	Starting BB second half-transformation.
	Two-electron integral transformation complete.
	(VV|VV)...
	Starting AA second half-transformation.
	Starting AB second half-transformation.
	Starting BB second half-transformation.
	Two-electron integral transformation complete.
	Frozen core energy     =    -61.27556070375472

	Size of irrep 0 of <AB|CD> integrals:      4.239 (MW) /     33.916 (MB)
	Size of irrep 1 of <AB|CD> integrals:      2.829 (MW) /     22.633 (MB)
	Total:                                     7.069 (MW) /     56.549 (MB)

	Size of irrep 0 of <ab|cd> integrals:      4.360 (MW) /     34.878 (MB)
	Size of irrep 1 of <ab|cd> integrals:      3.028 (MW) /     24.221 (MB)
	Total:                                     7.387 (MW) /     59.099 (MB)

	Size of irrep 0 of <Ab|Cd> integrals:     17.927 (MW) /    143.414 (MB)
	Size of irrep 1 of <Ab|Cd> integrals:     11.710 (MW) /     93.681 (MB)
	Total:                                    29.637 (MW) /    237.095 (MB)

	Size of irrep 0 of <IA|BC> integrals:      0.854 (MW) /      6.829 (MB)
	Size of irrep 1 of <IA|BC> integrals:      0.488 (MW) /      3.902 (MB)
	Total:                                     1.341 (MW) /     10.731 (MB)

	Size of irrep 0 of <ia|bc> integrals:      0.742 (MW) /      5.935 (MB)
	Size of irrep 1 of <ia|bc> integrals:      0.313 (MW) /      2.506 (MB)
	Total:                                     1.055 (MW) /      8.441 (MB)

	Size of irrep 0 of <Ia|Bc> integrals:      0.864 (MW) /      6.910 (MB)
	Size of irrep 1 of <Ia|Bc> integrals:      0.506 (MW) /      4.052 (MB)
	Total:                                     1.370 (MW) /     10.962 (MB)

	Size of irrep 0 of <iA|bC> integrals:      0.737 (MW) /      5.894 (MB)
	Size of irrep 1 of <iA|bC> integrals:      0.298 (MW) /      2.382 (MB)
	Total:                                     1.034 (MW) /      8.275 (MB)

	Size of irrep 0 of tIjAb amplitudes:       0.038 (MW) /      0.305 (MB)
	Size of irrep 1 of tIjAb amplitudes:       0.010 (MW) /      0.082 (MB)
	Total:                                     0.048 (MW) /      0.387 (MB)

	Nuclear Rep. energy          =      8.82383367819558
	SCF energy                   =    -75.70502866210751
	One-electron energy          =    -37.33618880801181
	Two-electron (AA) energy     =      3.70321277847771
	Two-electron (BB) energy     =      1.75439569445398
	Two-electron (AB) energy     =      8.62527869853143
	Two-electron energy          =     14.08288717146313
	Reference energy             =    -75.70502866210782

*** tstop() called on node2 at Sat Nov  5 10:19:30 2022
Module time:
	user time   =      19.68 seconds =       0.33 minutes
	system time =       3.42 seconds =       0.06 minutes
	total time  =          8 seconds =       0.13 minutes
Total time:
	user time   =      27.54 seconds =       0.46 minutes
	system time =       3.78 seconds =       0.06 minutes
	total time  =         11 seconds =       0.18 minutes

*** tstart() called on node2
*** at Sat Nov  5 10:19:30 2022

            **************************
            *                        *
            *        CCENERGY        *
            *                        *
            **************************

    Nuclear Rep. energy (wfn)     =    8.823833678195580
    SCF energy          (wfn)     =  -75.705028662107509
    Reference energy    (file100) =  -75.705028662107821

    Input parameters:
    -----------------
    Wave function   =     CC3
    Reference wfn   =     ROHF changed to UHF for Semicanonical Orbitals
    Brueckner       =     No
    Memory (Mbytes) =     31950.0
    Maxiter         =    500
    R_Convergence   =     1.0e-12
    E_Convergence   =     1.0e-06
    Restart         =     Yes
    DIIS            =     Yes
    AO Basis        =     NONE
    ABCD            =     NEW
    Cache Level     =     0
    Cache Type      =     LRU
    Print Level     =     1
    Num. of threads =     4
    # Amps to Print =     10
    Print MP2 Amps? =     No
    Analyze T2 Amps =     No
    Print Pair Ener =     No
    Local CC        =     No
    T3 Ws incore    =     No
    SCS-MP2         =     False
    SCSN-MP2        =     False
    SCS-CCSD        =     False

MP2 correlation energy -0.2069011536155254
                Solving CC Amplitude Equations
                ------------------------------
  Iter             Energy              RMS        T1Diag      D1Diag    New D1Diag    D2Diag
  ----     ---------------------    ---------   ----------  ----------  ----------   --------
     0        -0.206959266462703    0.000e+00    0.013477    0.000000    0.000000    0.000000
     1        -0.221926934923739    3.315e-02    0.016589    0.000000    0.000000    0.000000
     2        -0.226902403496860    1.203e-02    0.018290    0.000000    0.000000    0.000000
     3        -0.227194320856341    4.055e-03    0.018840    0.000000    0.000000    0.000000
     4        -0.227204903088785    1.755e-03    0.018902    0.000000    0.000000    0.000000
     5        -0.227240153980652    7.259e-04    0.018873    0.000000    0.000000    0.000000
     6        -0.227243600785247    2.384e-04    0.018840    0.000000    0.000000    0.000000
     7        -0.227245762175883    9.079e-05    0.018830    0.000000    0.000000    0.000000
     8        -0.227245595351891    3.178e-05    0.018828    0.000000    0.000000    0.000000
     9        -0.227245560976334    1.065e-05    0.018829    0.000000    0.000000    0.000000
    10        -0.227245676114260    3.915e-06    0.018829    0.000000    0.000000    0.000000
    11        -0.227245614469887    1.319e-06    0.018829    0.000000    0.000000    0.000000
    12        -0.227245597520537    3.952e-07    0.018829    0.000000    0.000000    0.000000
    13        -0.227245587492722    1.092e-07    0.018829    0.000000    0.000000    0.000000
    14        -0.227245587128416    3.332e-08    0.018829    0.000000    0.000000    0.000000
    15        -0.227245587087803    1.291e-08    0.018829    0.000000    0.000000    0.000000
    16        -0.227245587015068    5.842e-09    0.018829    0.000000    0.000000    0.000000
    17        -0.227245586917754    2.593e-09    0.018829    0.000000    0.000000    0.000000
    18        -0.227245586857212    1.063e-09    0.018829    0.000000    0.000000    0.000000
    19        -0.227245586848247    4.269e-10    0.018829    0.000000    0.000000    0.000000
    20        -0.227245586849243    1.497e-10    0.018829    0.000000    0.000000    0.000000
    21        -0.227245586848409    5.202e-11    0.018829    0.000000    0.000000    0.000000
    22        -0.227245586848436    1.860e-11    0.018829    0.000000    0.000000    0.000000
    23        -0.227245586848390    5.884e-12    0.018829    0.000000    0.000000    0.000000
    24        -0.227245586848417    2.096e-12    0.018829    0.000000    0.000000    0.000000
    25        -0.227245586848419    6.952e-13    0.018829    0.000000    0.000000    0.000000

    Iterations converged.


    Largest TIA Amplitudes:
              0  26         0.0093918054
              0   0        -0.0087635954
              0  12        -0.0085830302
              0  28        -0.0084186637
              0  30         0.0077748935
              0   9        -0.0077445565
              0  13         0.0076185195
              0   3         0.0073104394
              3  58         0.0061738876
              0   7        -0.0057370513

    Largest Tia Amplitudes:
              2   2        -0.0107048539
              1   4        -0.0104050885
              0   0         0.0098102121
              0   3         0.0096180477
              1   1         0.0091481813
              1  10        -0.0085486067
              0  30         0.0082509289
              0  13        -0.0081191486
              2   0        -0.0079171239
              0  12         0.0078715373

    Largest TIJAB Amplitudes:
      3   2  63  15        -0.0085102183
      3   1  63  10        -0.0080667288
      3   1  62  12        -0.0077203039
      3   2  70  30         0.0075551976
      3   1  63   4         0.0071114217
      2   1  15  10        -0.0070232005
      3   1  63   1        -0.0069160086
      3   2  61  13        -0.0067370850
      3   2  58  15        -0.0066450770
      3   2  64  15        -0.0066011966

    Largest Tijab Amplitudes:
      2   0  63  58        -0.0080901985
      1   0  62  58         0.0076830915
      2   0  71  58         0.0073933498
      2   1  15  10        -0.0070787176
      2   1  12   4         0.0070518757
      2   1  12  10         0.0067536970
      2   1  12  11         0.0064110193
      2   1  15   1         0.0063051782
      2   1  10   2         0.0061139626
      1   0  69  58         0.0060870262

    Largest TIjAb Amplitudes:
      1   1  10  10         0.0190337566
      2   2  15  15         0.0178932358
      1   1   4  10        -0.0172598276
      1   1  10   4         0.0171677039
      3   0   0  58         0.0163619973
      3   0  12  58         0.0161915297
      1   1   4   4        -0.0160159664
      1   1   1  10         0.0150527659
      3   0  26  58        -0.0149766235
      2   0  70  58        -0.0148408659

    SCF energy       (wfn)                    =  -75.705028662107509
    Reference energy (file100)                =  -75.705028662107821

    Opposite-spin MP2 correlation energy      =   -0.157953604136180
    Same-spin MP2 correlation energy          =   -0.045345795488529
    MP2 correlation energy                    =   -0.206901153615525
      * MP2 total energy                      =  -75.911929815723340
    CC3 correlation energy                    =   -0.227245586848419
      * CC3 total energy                      =  -75.932274248956247


*** tstop() called on node2 at Sat Nov  5 10:24:20 2022
Module time:
	user time   =    1069.80 seconds =      17.83 minutes
	system time =      83.35 seconds =       1.39 minutes
	total time  =        290 seconds =       4.83 minutes
Total time:
	user time   =    1097.35 seconds =      18.29 minutes
	system time =      87.13 seconds =       1.45 minutes
	total time  =        301 seconds =       5.02 minutes

*** tstart() called on node2
*** at Sat Nov  5 10:24:20 2022


			**************************
			*                        *
			*         CCHBAR         *
			*                        *
			**************************

Dots of (HeT1)c in names "CC3 Wxxx" in CC3_HET1 
Wamef terms
	<WAMEF|WAMEF> =   13.3000770606
	<Wamef|Wamef> =   10.8495574313
	<WAmEf|WAmEf> =    9.3145344030
	<WaMeF|WaMeF> =   12.6599601538
Wmnie terms
	<WMNIE (M>N,IE)|WMNIE> =    0.7440177198
	<Wmnie (m>n,ie)|Wmnie> =    0.3278255069
	<WMnIe (Mn,Ie)|WMnIe> =    0.7253300091
	<WmNiE (mN,iE)|WmNiE> =    0.6141984715
	<WMNIE(M>N,EI)|WMNIE(M>N,EI)> =    0.7440177198
	<Wmnie(m>n,ei)|Wmnie(m>n,ei)> =    0.3278255069
	<WMnIe(Mn,eI)|WMnIe(Mn,eI)> =    0.7253300091
	<WmNiE(mN,Ei)|WmNiE(mN,Ei)> =    0.6141984715
Doing Wmnij terms.
	<WMNIJ (M>N,I>J)|WMNIJ> =    9.2393898517
	<Wmnij (m>n,i>j)|Wmnij> =    4.0535321855
	<WMnIj (Mn,Ij)|WMnIj> =    6.4010944711
Doing Wmbij terms.
	<WMBIJ (MB,I>J)|WMBIJ> =    0.7493303664
	<WMBIJ (I>J,MB)|WMBIJ> =    0.7493303664
	<Wmbij (mb,i>j)|Wmbij> =    0.3336069487
	<Wmbij (i>j,mb)|Wmbij> =    0.3336069487
	<WMbIj (Mb,Ij)|WMbIj> =    0.7287481034
	<WMbIj (Ij,Mb)|WMbIj> =    0.7287481034
	<WmBiJ (mB,iJ)|WmBiJ> =    0.6175412158
	<WmBiJ (iJ,mB)|WmBiJ> =    0.6175412158
Doing Wmbej terms.
	<WMBEJ (all ME,JB)|WMBEJ> =   81.9818479463
	<Wmbej|Wmbej> =   62.0665955355
	<WMbEj|WMbEj> =    1.0307350643
	<WmBeJ|WmBeJ> =    1.0401843581
	<WMbeJ|WMbeJ> =   95.0206166577
	<WmBEj|WmBEj> =   68.0651413702
Doing Wabei terms.
	<WABEI (IE,B>A) |WABEI> =   13.3534429693
	<Wabei (ie,b>a)|Wabei> =   10.9472305233
	<WAbEi (iE,bA)|WAbEi> =    9.3885487268
	<WAbEi (iE,Ba)|WAbEi> =   12.6947394411

*** tstop() called on node2 at Sat Nov  5 10:24:23 2022
Module time:
	user time   =       6.65 seconds =       0.11 minutes
	system time =       1.56 seconds =       0.03 minutes
	total time  =          3 seconds =       0.05 minutes
Total time:
	user time   =    1104.01 seconds =      18.40 minutes
	system time =      88.69 seconds =       1.48 minutes
	total time  =        304 seconds =       5.07 minutes

*** tstart() called on node2
*** at Sat Nov  5 10:24:23 2022


	**********************************************************
	*  CCEOM: An Equation of Motion Coupled Cluster Program  *
	**********************************************************

	Nuclear Rep. energy (wfn)     =    8.823833678195580
	SCF energy          (wfn)     =  -75.705028662107509
	Reference energy    (file100) =  -75.705028662107821
	CC3 energy          (file100) =   -0.227245586848419

	Input parameters:
	-----------------
	Reference wfn   = ROHF changed to UHF for Semicanonical Orbitals
	Reference EOM wfn=     UHF
	Memory (Mbytes) =  31950.0
	ABCD            =     NEW
	Cache Level     =    0
	Cache Type      =     LRU
	T3 Ws incore  =      No
	Num. of threads =     4
	Local CC        =     No


	CCEOM parameters:
	-----------------
	States sought per irrep     = Ap 0, App 1,
	Max. number of iterations   =   500
	Vectors stored per root     =    12
	Print HbarSS iterations?    =     0
	Excitation range for HBarSS =     2
	Eigenvalue tolerance        = 1.0e-06
	Eigenvalue toleranceSS      = 1.0e-06
	Residual vector tolerance   = 1.0e-08
	Residual vector toleranceSS = 1.0e-06
	Complex tolerance           = 1.0e-12
	Root for properties         =     1
	Sym of state for properties =     Ap
	Guess vectors taken from    = SINGLES
	Restart EOM CC3             = NO
	Collapse with last vector   = YES


Symmetry of ground state: App
Symmetry of excited state: App
Symmetry of right eigenvector: Ap
Obtaining initial guess from singles-singles block of Hbar...Done.

Iter=1    L=1     Root    EOM Energy     Delta E   Res. Norm    Conv?
                     1   0.5811784186   5.81e-01    5.14e-01      N
Iter=2    L=2     Root    EOM Energy     Delta E   Res. Norm    Conv?
                     1   0.4894712797  -9.17e-02    9.70e-02      N
Iter=3    L=3     Root    EOM Energy     Delta E   Res. Norm    Conv?
                     1   0.4833214360  -6.15e-03    6.33e-02      N
Iter=4    L=4     Root    EOM Energy     Delta E   Res. Norm    Conv?
                     1   0.4801165848  -3.20e-03    4.63e-02      N
Iter=5    L=5     Root    EOM Energy     Delta E   Res. Norm    Conv?
                     1   0.4788955799  -1.22e-03    2.70e-02      N
Iter=6    L=6     Root    EOM Energy     Delta E   Res. Norm    Conv?
                     1   0.4784642160  -4.31e-04    1.35e-02      N
Iter=7    L=7     Root    EOM Energy     Delta E   Res. Norm    Conv?
                     1   0.4783270699  -1.37e-04    8.72e-03      N
Iter=8    L=8     Root    EOM Energy     Delta E   Res. Norm    Conv?
                     1   0.4782521267  -7.49e-05    6.29e-03      N
Iter=9    L=9     Root    EOM Energy     Delta E   Res. Norm    Conv?
                     1   0.4782156215  -3.65e-05    3.89e-03      N
Iter=10   L=10    Root    EOM Energy     Delta E   Res. Norm    Conv?
                     1   0.4782044482  -1.12e-05    3.00e-03      N
Iter=11   L=11    Root    EOM Energy     Delta E   Res. Norm    Conv?
                     1   0.4781945439  -9.90e-06    2.41e-03      N
Iter=12   L=12    Root    EOM Energy     Delta E   Res. Norm    Conv?
                     1   0.4781908830  -3.66e-06    1.38e-03      N
Iter=13   L=2     Root    EOM Energy     Delta E   Res. Norm    Conv?
                     1   0.4781908830  -6.11e-16    1.38e-03      N
Iter=14   L=3     Root    EOM Energy     Delta E   Res. Norm    Conv?
                     1   0.4781901227  -7.60e-07    6.78e-04      N
Iter=15   L=4     Root    EOM Energy     Delta E   Res. Norm    Conv?
                     1   0.4781903787   2.56e-07    4.06e-04      N
Iter=16   L=5     Root    EOM Energy     Delta E   Res. Norm    Conv?
                     1   0.4781896469  -7.32e-07    2.34e-04      N
Iter=17   L=6     Root    EOM Energy     Delta E   Res. Norm    Conv?
                     1   0.4781892103  -4.37e-07    1.05e-04      N
Iter=18   L=7     Root    EOM Energy     Delta E   Res. Norm    Conv?
                     1   0.4781893189   1.09e-07    4.89e-05      N
Iter=19   L=8     Root    EOM Energy     Delta E   Res. Norm    Conv?
                     1   0.4781892468  -7.21e-08    3.29e-05      N
Iter=20   L=9     Root    EOM Energy     Delta E   Res. Norm    Conv?
                     1   0.4781892324  -1.44e-08    2.88e-05      N
Iter=21   L=10    Root    EOM Energy     Delta E   Res. Norm    Conv?
                     1   0.4781892301  -2.30e-09    1.86e-05      N
Iter=22   L=11    Root    EOM Energy     Delta E   Res. Norm    Conv?
                     1   0.4781892479   1.78e-08    1.08e-05      N
Iter=23   L=12    Root    EOM Energy     Delta E   Res. Norm    Conv?
                     1   0.4781892623   1.44e-08    5.27e-06      N
Iter=24   L=2     Root    EOM Energy     Delta E   Res. Norm    Conv?
                     1   0.4781892623  -9.44e-15    5.27e-06      N
Iter=25   L=3     Root    EOM Energy     Delta E   Res. Norm    Conv?
                     1   0.4781892481  -1.42e-08    2.36e-06      N
Iter=26   L=4     Root    EOM Energy     Delta E   Res. Norm    Conv?
                     1   0.4781892444  -3.64e-09    1.38e-06      N
Iter=27   L=5     Root    EOM Energy     Delta E   Res. Norm    Conv?
                     1   0.4781892457   1.31e-09    9.41e-07      N
Iter=28   L=6     Root    EOM Energy     Delta E   Res. Norm    Conv?
                     1   0.4781892464   6.82e-10    4.75e-07      N
Iter=29   L=7     Root    EOM Energy     Delta E   Res. Norm    Conv?
                     1   0.4781892466   1.78e-10    2.06e-07      N
Iter=30   L=8     Root    EOM Energy     Delta E   Res. Norm    Conv?
                     1   0.4781892465  -1.25e-10    9.27e-08      N
Iter=31   L=9     Root    EOM Energy     Delta E   Res. Norm    Conv?
                     1   0.4781892464  -6.23e-11    4.74e-08      N
Iter=32   L=10    Root    EOM Energy     Delta E   Res. Norm    Conv?
                     1   0.4781892464  -2.74e-11    3.19e-08      N
Iter=33   L=11    Root    EOM Energy     Delta E   Res. Norm    Conv?
                     1   0.4781892463  -5.80e-11    2.14e-08      N
Iter=34   L=12    Root    EOM Energy     Delta E   Res. Norm    Conv?
                     1   0.4781892463   8.82e-12    1.47e-08      N
Iter=35   L=2     Root    EOM Energy     Delta E   Res. Norm    Conv?
                     1   0.4781892463   2.52e-12    2.12e-08      N
Iter=36   L=3     Root    EOM Energy     Delta E   Res. Norm    Conv?
                     1   0.4781892463  -4.85e-11    1.67e-08      N
Iter=37   L=4     Root    EOM Energy     Delta E   Res. Norm    Conv?
                     1   0.4781892463  -1.81e-11    1.18e-08      N
Iter=38   L=5     Root    EOM Energy     Delta E   Res. Norm    Conv?
                     1   0.4781892463  -2.41e-11    7.46e-09      Y
Completed EOM_CCSD
Collapsing to only 1 vector(s).
Copying root 1 to CC3_MISC file.
Setting initial CC3 eigenvalue to    0.4781892463
Iter=1    L=1     Root    EOM Energy     Delta E   Res. Norm    Conv?
                     1   0.4729304010  -5.26e-03    4.35e-02      N
Iter=2    L=2     Root    EOM Energy     Delta E   Res. Norm    Conv?
                     1   0.4713852084  -1.55e-03    2.69e-02      N
Iter=3    L=3     Root    EOM Energy     Delta E   Res. Norm    Conv?
                     1   0.4699409079  -1.44e-03    4.25e-02      N
Iter=4    L=4     Root    EOM Energy     Delta E   Res. Norm    Conv?
                     1   0.4681266766  -1.81e-03    2.50e-02      N
Iter=5    L=5     Root    EOM Energy     Delta E   Res. Norm    Conv?
                     1   0.4677320060  -3.95e-04    1.31e-02      N
Iter=6    L=6     Root    EOM Energy     Delta E   Res. Norm    Conv?
                     1   0.4675983678  -1.34e-04    1.26e-02      N
Iter=7    L=7     Root    EOM Energy     Delta E   Res. Norm    Conv?
                     1   0.4674463874  -1.52e-04    9.47e-03      N
Iter=8    L=8     Root    EOM Energy     Delta E   Res. Norm    Conv?
                     1   0.4673626780  -8.37e-05    5.35e-03      N
Iter=9    L=9     Root    EOM Energy     Delta E   Res. Norm    Conv?
                     1   0.4673569008  -5.78e-06    2.39e-03      N
Iter=10   L=10    Root    EOM Energy     Delta E   Res. Norm    Conv?
                     1   0.4673558179  -1.08e-06    1.20e-03      N
Collapsing to 2 vector(s).
Change in CC3 energy from last iterated value   -0.0108334284
Iter=11   L=2     Root    EOM Energy     Delta E   Res. Norm    Conv?
                     1   0.4673833497   2.75e-05    1.20e-03      N
Iter=12   L=3     Root    EOM Energy     Delta E   Res. Norm    Conv?
                     1   0.4673811038  -2.25e-06    7.87e-04      N
Iter=13   L=4     Root    EOM Energy     Delta E   Res. Norm    Conv?
                     1   0.4673808608  -2.43e-07    4.87e-04      N
Iter=14   L=5     Root    EOM Energy     Delta E   Res. Norm    Conv?
                     1   0.4673812388   3.78e-07    2.27e-04      N
Iter=15   L=6     Root    EOM Energy     Delta E   Res. Norm    Conv?
                     1   0.4673806150  -6.24e-07    1.21e-04      N
Iter=16   L=7     Root    EOM Energy     Delta E   Res. Norm    Conv?
                     1   0.4673806054  -9.58e-09    7.53e-05      N
Iter=17   L=8     Root    EOM Energy     Delta E   Res. Norm    Conv?
                     1   0.4673809138   3.08e-07    5.54e-05      N
Iter=18   L=9     Root    EOM Energy     Delta E   Res. Norm    Conv?
                     1   0.4673809737   5.99e-08    4.70e-05      N
Iter=19   L=10    Root    EOM Energy     Delta E   Res. Norm    Conv?
                     1   0.4673809461  -2.76e-08    3.36e-05      N
Collapsing to 2 vector(s).
Change in CC3 energy from last iterated value    0.0000251282
Iter=20   L=2     Root    EOM Energy     Delta E   Res. Norm    Conv?
                     1   0.4673808514  -9.47e-08    3.32e-05      N
Iter=21   L=3     Root    EOM Energy     Delta E   Res. Norm    Conv?
                     1   0.4673808843   3.29e-08    1.85e-05      N
Iter=22   L=4     Root    EOM Energy     Delta E   Res. Norm    Conv?
                     1   0.4673809038   1.95e-08    1.03e-05      N
Iter=23   L=5     Root    EOM Energy     Delta E   Res. Norm    Conv?
                     1   0.4673809148   1.09e-08    4.95e-06      N
Iter=24   L=6     Root    EOM Energy     Delta E   Res. Norm    Conv?
                     1   0.4673809163   1.54e-09    2.34e-06      N
Iter=25   L=7     Root    EOM Energy     Delta E   Res. Norm    Conv?
                     1   0.4673809154  -9.05e-10    1.38e-06      N
Iter=26   L=8     Root    EOM Energy     Delta E   Res. Norm    Conv?
                     1   0.4673809137  -1.71e-09    8.32e-07      N
Iter=27   L=9     Root    EOM Energy     Delta E   Res. Norm    Conv?
                     1   0.4673809141   3.99e-10    5.15e-07      N
Iter=28   L=10    Root    EOM Energy     Delta E   Res. Norm    Conv?
                     1   0.4673809145   4.28e-10    3.20e-07      N
Collapsing to 2 vector(s).
Change in CC3 energy from last iterated value   -0.0000000316
Iter=29   L=2     Root    EOM Energy     Delta E   Res. Norm    Conv?
                     1   0.4673809146   1.19e-10    3.19e-07      N
Iter=30   L=3     Root    EOM Energy     Delta E   Res. Norm    Conv?
                     1   0.4673809146  -2.19e-11    1.59e-07      N
Iter=31   L=4     Root    EOM Energy     Delta E   Res. Norm    Conv?
                     1   0.4673809147   3.21e-11    8.21e-08      N
Iter=32   L=5     Root    EOM Energy     Delta E   Res. Norm    Conv?
                     1   0.4673809147   2.29e-11    5.18e-08      N
Iter=33   L=6     Root    EOM Energy     Delta E   Res. Norm    Conv?
                     1   0.4673809147   5.45e-14    4.64e-08      N
Iter=34   L=7     Root    EOM Energy     Delta E   Res. Norm    Conv?
                     1   0.4673809147   7.49e-12    3.52e-08      N
Iter=35   L=8     Root    EOM Energy     Delta E   Res. Norm    Conv?
                     1   0.4673809147  -9.41e-12    1.85e-08      N
Iter=36   L=9     Root    EOM Energy     Delta E   Res. Norm    Conv?
                     1   0.4673809147  -2.13e-12    9.46e-09      Y
Collapsing to only 1 vector(s).
Change in CC3 energy from last iterated value    0.0000000001

Procedure converged for 1 root(s).
Energy written to CC_INFO:Etot  -75.4648933343
States per irrep written to CC_INFO.
<R|R> =   1.0000000000000000
EOM CC3 R0 for root 0 =  -0.00392207003

Final Energetic Summary for Converged Roots of Irrep App
                     Excitation Energy              Total Energy
                (eV)     (cm^-1)     (au)             (au)
EOM State 1     12.718   102578.2   0.4673809147   -75.464893334280

Largest components of excited wave function #1:
 RIA (libdpd indices) : (cscf notation)
         2 >   0      :       4ap >    5ap :    0.4923384079
         2 >   3      :       4ap >    8ap :   -0.1749482486
         2 >   9      :       4ap >   14ap :    0.1364738799
         2 >   2      :       4ap >    7ap :    0.1252528439
         2 >   7      :       4ap >   12ap :    0.0511254635
 Ria (libdpd indices) : (cscf notation)
         2 >   0      :       4ap >    5ap :   -0.5833025990
         2 >   3      :       4ap >    8ap :   -0.2343862329
         2 >   9      :       4ap >   14ap :   -0.1713194210
         2 >   2      :       4ap >    7ap :   -0.1376330148
         2 >   7      :       4ap >   12ap :    0.0584838898
 RIjAb (libdpd indices)     : (cscf notation)
        0   2 >   0   0     :   1app    4ap >    5ap   1app :    0.3346943438
        0   2 >   3   0     :   1app    4ap >    8ap   1app :   -0.1191103971
        0   2 >   0   1     :   1app    4ap >    5ap   2app :    0.0953814931
        0   2 >   9   0     :   1app    4ap >   14ap   1app :    0.0933006495
        0   2 >   2   0     :   1app    4ap >    7ap   1app :    0.0829286021
 RIJAB (libdpd indices)     : (cscf notation)
        0   2 >   5   0     :   1app    4ap >   7app    5ap :   -0.0201146698
        0   2 >   0   0     :   1app    4ap >   2app    5ap :   -0.0193652866
        2   1 >  10   0     :    4ap    3ap >   15ap    5ap :    0.0189740805
        2   1 >   4   0     :    4ap    3ap >    9ap    5ap :   -0.0182213362
        2   1 >   1   0     :    4ap    3ap >    6ap    5ap :    0.0167610290
 Rijab (libdpd indices)     : (cscf notation)
        2   1 >  10   0     :    4ap    3ap >   15ap    5ap :    0.0239270515
        2   1 >   4   0     :    4ap    3ap >    9ap    5ap :    0.0232452124
        2   1 >   1   0     :    4ap    3ap >    6ap    5ap :   -0.0202698666
        2   1 >  20   0     :    4ap    3ap >   25ap    5ap :   -0.0134976734
        2   0 >   9   0     :    4ap    2ap >   14ap    5ap :   -0.0095822705

	Putting into environment energy for root of R irrep 1 and root 1.
	Putting into environment CURRENT ENERGY:              -75.4648933343

	Total # of sigma evaluations: 74

*** tstop() called on node2 at Sat Nov  5 10:39:58 2022
Module time:
	user time   =    3506.30 seconds =      58.44 minutes
	system time =     231.86 seconds =       3.86 minutes
	total time  =        935 seconds =      15.58 minutes
Total time:
	user time   =    4610.31 seconds =      76.84 minutes
	system time =     320.55 seconds =       5.34 minutes
	total time  =       1239 seconds =      20.65 minutes

    Psi4 stopped on: Saturday, 05 November 2022 10:39AM
    Psi4 wall time for execution: 0:20:39.26

*** Psi4 exiting successfully. Buy a developer a beer!
