
    -----------------------------------------------------------------------
          Psi4: An Open-Source Ab Initio Electronic Structure Package
                               Psi4 1.2 release

                         Git: Rev {HEAD} 9d4a61c 


    R. M. Parrish, L. A. Burns, D. G. A. Smith, A. C. Simmonett,
    A. E. DePrince III, E. G. Hohenstein, U. Bozkaya, A. Yu. Sokolov,
    R. Di Remigio, R. M. Richard, J. F. Gonthier, A. M. James,
    H. R. McAlexander, A. Kumar, M. Saitow, X. Wang, B. P. Pritchard,
    P. Verma, H. F. Schaefer III, K. Patkowski, R. A. King, E. F. Valeev,
    F. A. Evangelista, J. M. Turney, T. D. Crawford, and C. D. Sherrill,
    J. Chem. Theory Comput. 13(7) pp 3185--3197 (2017).
    (doi: 10.1021/acs.jctc.7b00174)


                         Additional Contributions by
    P. Kraus, H. Kruse, M. H. Lechner, M. C. Schieber, and R. A. Shaw

    -----------------------------------------------------------------------


    Psi4 started on: Saturday, 05 November 2022 10:19AM

    Process ID: 14809
    Host:       node3
    PSIDATADIR: /home/qc/psi4conda/share/psi4
    Memory:     500.0 MiB
    Threads:    4
    
  ==> Input File <==

--------------------------------------------------------------------------
#h2o SPECIAL eom-cc3
memory 31950 mb

molecule h2o{
1 2
H        0.0000000000       -1.5398182946       -0.9666322339
O        0.0000000000        0.0000000000        0.1170002778
H        0.0000000000        1.5398182946       -0.9666322339

units bohr
}
 
set globals {
 reference rohf
 basis aug-cc-pvtz-dk
 freeze_core true
 cachelevel=0
 relativistic x2c
 maxiter=500
 dertype none
 ints_tolerance 20
 roots_per_irrep = [0,0,1,0]
}

set scf d_convergence 12
set ccenergy r_convergence 12
set cceom r_convergence 8

energy('eom-cc3')--------------------------------------------------------------------------

  Memory set to  29.756 GiB by Python driver.

*** tstart() called on node3
*** at Sat Nov  5 10:19:29 2022

   => Loading Basis Set <=

    Name: AUG-CC-PVTZ-DK
    Role: ORBITAL
    Keyword: BASIS
    atoms 1, 3 entry H          line    45 file /home/qc/psi4conda/share/psi4/basis/aug-cc-pvtz-dk.gbs 
    atoms 2    entry O          line   324 file /home/qc/psi4conda/share/psi4/basis/aug-cc-pvtz-dk.gbs 


         ---------------------------------------------------------
                                   SCF
            by Justin Turney, Rob Parrish, Andy Simmonett
                             and Daniel Smith
                             ROHF Reference
                        4 Threads,  30469 MiB Core
         ---------------------------------------------------------

  ==> Geometry <==

    Molecular point group: c2v
    Full point group: C2v

    Geometry (in Bohr), charge = 1, multiplicity = 2:

       Center              X                  Y                   Z               Mass       
    ------------   -----------------  -----------------  -----------------  -----------------
         H            0.000000000000    -1.539818294600    -0.962357916479     1.007825032070
         O            0.000000000000     0.000000000000     0.121274595221    15.994914619560
         H           -0.000000000000     1.539818294600    -0.962357916479     1.007825032070

  Running in c2v symmetry.

  Rotational constants: A =     28.63917  B =     12.59622  C =      8.74844 [cm^-1]
  Rotational constants: A = 858580.75086  B = 377625.09439  C = 262271.56127 [MHz]
  Nuclear repulsion =    8.822259154163365

  Charge       = 1
  Multiplicity = 2
  Electrons    = 9
  Nalpha       = 5
  Nbeta        = 4

  ==> Algorithm <==

  SCF Algorithm Type is PK.
  DIIS enabled.
  MOM disabled.
  Fractional occupation disabled.
  Guess Type is GWH.
  Energy threshold   = 1.00e-08
  Density threshold  = 1.00e-12
  Integral threshold = 1.00e-20

  ==> Primary Basis <==

  Basis Set: AUG-CC-PVTZ-DK
    Blend: AUG-CC-PVTZ-DK
    Number of shells: 32
    Number of basis function: 92
    Number of Cartesian functions: 105
    Spherical Harmonics?: true
    Max angular momentum: 3

   => Loading Basis Set <=

    Name: (AUG-CC-PVTZ-DK AUX)
    Role: DECON
    Keyword: BASIS_RELATIVISTIC
    atoms 1, 3 entry H          line    45 file /home/qc/psi4conda/share/psi4/basis/aug-cc-pvtz-dk.gbs func decontract
    atoms 2    entry O          line   324 file /home/qc/psi4conda/share/psi4/basis/aug-cc-pvtz-dk.gbs func decontract

  ==> Pre-Iterations <==

   -------------------------------------------------------
    Irrep   Nso     Nmo     Nalpha   Nbeta   Ndocc  Nsocc
   -------------------------------------------------------
     A1        35      35       0       0       0       0
     A2        12      12       0       0       0       0
     B1        18      18       0       0       0       0
     B2        27      27       0       0       0       0
   -------------------------------------------------------
    Total      92      92       5       4       4       1
   -------------------------------------------------------

 OEINTS: Using relativistic (X2C) overlap, kinetic, and potential integrals.
         ------------------------------------------------------------
         Spin-Free X2C Integrals at the One-Electron Level (SFX2C-1e)
                 by Prakash Verma and Francesco A. Evangelista
         ------------------------------------------------------------

  ==> X2C Options <==

    Computational Basis: AUG-CC-PVTZ-DK
    X2C Basis: (AUG-CC-PVTZ-DK AUX)
    The X2C Hamiltonian will be computed in the X2C Basis

    Comparing only 35 out of 45 elements of H_Dirac

    Comparing only 18 out of 20 elements of H_Dirac

    Comparing only 27 out of 31 elements of H_Dirac

    The 1-norm of |H_X2C - H_Dirac| is: 6.833223562897

    WARNING: The X2C and Dirac Hamiltonians have substatially different eigenvalues!
             This is probably caused by the recontraction of the basis set.

  ==> Integral Setup <==

  Using in-core PK algorithm.
   Calculation information:
      Number of atoms:                   3
      Number of AO shells:              32
      Number of primitives:             52
      Number of atomic orbitals:       105
      Number of basis functions:        92

      Integral cutoff                 1.00e-20
      Number of threads:                 4

  Performing in-core PK
  Using 18305562 doubles for integral storage.
  We computed 171364 shell quartets total.
  Whereas there are 139656 unique shell quartets.
    22.70 percent of shell quartets recomputed by reordering.

  ==> DiskJK: Disk-Based J/K Matrices <==

    J tasked:                  Yes
    K tasked:                  Yes
    wK tasked:                  No
    Memory (MB):             22852
    Schwarz Cutoff:          1E-20

    OpenMP threads:              4

  Minimum eigenvalue in the overlap matrix is 4.0621231567E-04.
  Using Symmetric Orthogonalization.

  SCF Guess: Generalized Wolfsberg-Helmholtz.

  ==> Iterations <==

                        Total Energy        Delta E     RMS |[F,P]|

   @ROHF iter   1:   -69.32708361741737   -6.93271e+01   1.22114e-01 
   @ROHF iter   2:   -75.57414626028418   -6.24706e+00   1.22264e-02 DIIS
   @ROHF iter   3:   -75.69096590238154   -1.16820e-01   3.20149e-03 DIIS
   @ROHF iter   4:   -75.70287271430831   -1.19068e-02   1.39756e-03 DIIS
   @ROHF iter   5:   -75.70495935234891   -2.08664e-03   3.66399e-04 DIIS
   @ROHF iter   6:   -75.70514038132035   -1.81029e-04   7.42886e-05 DIIS
   @ROHF iter   7:   -75.70514941236711   -9.03105e-06   1.34042e-05 DIIS
   @ROHF iter   8:   -75.70514965268356   -2.40316e-07   1.74414e-06 DIIS
   @ROHF iter   9:   -75.70514965702975   -4.34619e-09   3.00647e-07 DIIS
   @ROHF iter  10:   -75.70514965712610   -9.63496e-11   6.37672e-08 DIIS
   @ROHF iter  11:   -75.70514965713086   -4.76064e-12   9.95506e-09 DIIS
   @ROHF iter  12:   -75.70514965713087   -1.42109e-14   1.61449e-09 DIIS
   @ROHF iter  13:   -75.70514965713096   -8.52651e-14   2.44184e-10 DIIS
   @ROHF iter  14:   -75.70514965713103   -7.10543e-14   4.09180e-11 DIIS
   @ROHF iter  15:   -75.70514965713083    1.98952e-13   7.61683e-12 DIIS
   @ROHF iter  16:   -75.70514965713090   -7.10543e-14   1.11928e-12 DIIS
   @ROHF iter  17:   -75.70514965713079    1.13687e-13   1.90094e-13 DIIS

  ==> Post-Iterations <==

    Orbital Energies [Eh]
    ---------------------

    Doubly Occupied:                                                      

       1A1   -21.118333     2A1    -1.802947     1B2    -1.178342  
       3A1    -1.048721  

    Singly Occupied:                                                      

       1B1    -0.686927  

    Virtual:                                                              

       4A1    -0.180770     2B2    -0.116378     5A1    -0.060845  
       2B1    -0.057779     6A1    -0.041927     3B2    -0.026616  
       4B2     0.010444     7A1     0.017882     1A2     0.036457  
       3B1     0.070198     8A1     0.072834     5B2     0.162855  
       9A1     0.178569     6B2     0.195669     7B2     0.322968  
      10A1     0.347297    11A1     0.408864     4B1     0.422331  
       2A2     0.422567    12A1     0.516997     5B1     0.554287  
      13A1     0.582342     8B2     0.597647     6B1     0.607457  
       3A2     0.623406     9B2     0.661130    14A1     0.668501  
      15A1     0.728575    10B2     0.743178     7B1     0.748921  
      11B2     0.829326    16A1     0.861684     4A2     0.871792  
      12B2     0.963350     5A2     1.165708     8B1     1.226257  
      17A1     1.245817    13B2     1.409667    18A1     1.439949  
      14B2     1.586224    19A1     1.686020     9B1     1.831922  
       6A2     1.899402    20A1     1.944041    21A1     1.979440  
      10B1     2.002848    15B2     2.051182    22A1     2.090998  
      11B1     2.306132    23A1     2.316782    16B2     2.320532  
       7A2     2.452600    17B2     2.492052    18B2     3.166767  
      24A1     3.312206     8A2     3.576066    12B1     3.587733  
      19B2     3.774941    25A1     3.780467    13B1     3.904287  
      14B1     3.966209     9A2     3.970934    20B2     4.048233  
      26A1     4.078323    27A1     4.206205    21B2     4.278938  
      22B2     4.614364    10A2     4.643723    28A1     4.743817  
      23B2     4.842545    15B1     4.926758    29A1     5.233324  
      30A1     5.600824    24B2     6.065002    16B1     6.202836  
      31A1     6.292415    17B1     6.606512    18B1     6.707238  
      11A2     6.716968    32A1     6.770450    12A2     6.851189  
      25B2     6.851866    33A1     6.977525    26B2     7.308522  
      34A1     7.414830    27B2     8.096242    35A1    14.213628  

    Final Occupation by Irrep:
             A1    A2    B1    B2 
    DOCC [     3,    0,    0,    1 ]
    SOCC [     0,    0,    1,    0 ]

  Energy converged.

  @ROHF Final Energy:   -75.70514965713079

   => Energetics <=

    Nuclear Repulsion Energy =              8.8222591541633655
    One-Electron Energy =                -117.6493357490894311
    Two-Electron Energy =                  33.1219269377952799
    Total Energy =                        -75.7051496571307894



Properties will be evaluated at   0.000000,   0.000000,   0.000000 [a0]

Properties computed using the SCF density matrix

  Nuclear Dipole Moment: [e a0]
     X:     0.0000      Y:     0.0000      Z:    -0.9545

  Electronic Dipole Moment: [e a0]
     X:     0.0000      Y:     0.0000      Z:    -0.0047

  Dipole Moment: [e a0]
     X:     0.0000      Y:     0.0000      Z:    -0.9593     Total:     0.9593

  Dipole Moment: [D]
     X:     0.0000      Y:     0.0000      Z:    -2.4382     Total:     2.4382


*** tstop() called on node3 at Sat Nov  5 10:19:31 2022
Module time:
	user time   =       5.22 seconds =       0.09 minutes
	system time =       0.15 seconds =       0.00 minutes
	total time  =          2 seconds =       0.03 minutes
Total time:
	user time   =       5.22 seconds =       0.09 minutes
	system time =       0.15 seconds =       0.00 minutes
	total time  =          2 seconds =       0.03 minutes
   => Loading Basis Set <=

    Name: (AUG-CC-PVTZ-DK AUX)
    Role: DECON
    Keyword: BASIS_RELATIVISTIC
    atoms 1, 3 entry H          line    45 file /home/qc/psi4conda/share/psi4/basis/aug-cc-pvtz-dk.gbs func decontract
    atoms 2    entry O          line   324 file /home/qc/psi4conda/share/psi4/basis/aug-cc-pvtz-dk.gbs func decontract

 MINTS: Wrapper to libmints.
   by Justin Turney

   Calculation information:
      Number of threads:                 4
      Number of atoms:                   3
      Number of AO shells:              32
      Number of SO shells:              23
      Number of primitives:             52
      Number of atomic orbitals:       105
      Number of basis functions:        92

      Number of irreps:                  4
      Integral cutoff                 1.00e-20
      Number of functions per irrep: [  35   12   18   27 ]

 OEINTS: Using relativistic (X2C) overlap, kinetic, and potential integrals.
         ------------------------------------------------------------
         Spin-Free X2C Integrals at the One-Electron Level (SFX2C-1e)
                 by Prakash Verma and Francesco A. Evangelista
         ------------------------------------------------------------

  ==> X2C Options <==

    Computational Basis: AUG-CC-PVTZ-DK
    X2C Basis: (AUG-CC-PVTZ-DK AUX)
    The X2C Hamiltonian will be computed in the X2C Basis

    Comparing only 35 out of 45 elements of H_Dirac

    Comparing only 18 out of 20 elements of H_Dirac

    Comparing only 27 out of 31 elements of H_Dirac

    The 1-norm of |H_X2C - H_Dirac| is: 6.833223562897

    WARNING: The X2C and Dirac Hamiltonians have substatially different eigenvalues!
             This is probably caused by the recontraction of the basis set.

 OEINTS: Overlap, kinetic, potential, dipole, and quadrupole integrals
         stored in file 35.

      Computing two-electron integrals...done
      Computed 2247545 non-zero two-electron integrals.
        Stored in file 33.


*** tstart() called on node3
*** at Sat Nov  5 10:19:32 2022


	Wfn Parameters:
	--------------------
	Wavefunction         = CC3
	Number of irreps     = 4
	Number of MOs        = 92
	Number of active MOs = 91
	AO-Basis             = NONE
	Semicanonical        = true
	Reference            = ROHF changed to UHF for semicanonical orbitals
	Print Level          = 1

	IRREP	# MOs	# FZDC	# DOCC	# SOCC	# VIRT	# FZVR
	-----	-----	------	------	------	------	------
	 A1	   35	    1	    2	    0	    32	    0
	 A2	   12	    0	    0	    0	    12	    0
	 B1	   18	    0	    0	    1	    17	    0
	 B2	   27	    0	    1	    0	    26	    0
	Transforming integrals...
	IWL integrals will be deleted.
	(OO|OO)...
	Presorting SO-basis two-electron integrals.
	Sorting File: SO Ints (nn|nn) nbuckets = 1
	Transforming the one-electron integrals and constructing Fock matrices
	Starting AA/AB first half-transformation.
	Sorting AA/AB half-transformed integrals.
	Starting BB first half-transformation.
	Sorting BB half-transformed integrals.
	First half integral transformation complete.
	Starting AA second half-transformation.
	Starting AB second half-transformation.
	Starting BB second half-transformation.
	Two-electron integral transformation complete.
	(OO|OV)...
	Starting AA second half-transformation.
	Starting AB second half-transformation.
	Starting BB second half-transformation.
	Two-electron integral transformation complete.
	(OO|VV)...
	Starting AA second half-transformation.
	Starting AB second half-transformation.
	Starting BB second half-transformation.
	Two-electron integral transformation complete.
	(OV|OO)...
	Starting AA/AB first half-transformation.
	Sorting AA/AB half-transformed integrals.
	Starting BB first half-transformation.
	Sorting BB half-transformed integrals.
	First half integral transformation complete.
	Starting AA second half-transformation.
	Starting AB second half-transformation.
	Starting BB second half-transformation.
	Two-electron integral transformation complete.
	(OV|OV)...
	Starting AA second half-transformation.
	Starting AB second half-transformation.
	Starting BB second half-transformation.
	Two-electron integral transformation complete.
	(OV|VV)...
	Starting AA second half-transformation.
	Starting AB second half-transformation.
	Starting BB second half-transformation.
	Two-electron integral transformation complete.
	(VV|OO)...
	Starting AA/AB first half-transformation.
	Sorting AA/AB half-transformed integrals.
	Starting BB first half-transformation.
	Sorting BB half-transformed integrals.
	First half integral transformation complete.
	Starting AA second half-transformation.
	Starting AB second half-transformation.
	Starting BB second half-transformation.
	Two-electron integral transformation complete.
	(VV|OV)...
	Starting AA second half-transformation.
	Starting AB second half-transformation.
	Starting BB second half-transformation.
	Two-electron integral transformation complete.
	(VV|VV)...
	Starting AA second half-transformation.
	Starting AB second half-transformation.
	Starting BB second half-transformation.
	Two-electron integral transformation complete.
	Frozen core energy     =    -61.27545017275237

	Size of irrep 0 of <AB|CD> integrals:      1.047 (MW) /      8.372 (MB)
	Size of irrep 1 of <AB|CD> integrals:      0.682 (MW) /      5.458 (MB)
	Size of irrep 2 of <AB|CD> integrals:      0.733 (MW) /      5.862 (MB)
	Size of irrep 3 of <AB|CD> integrals:      1.073 (MW) /      8.586 (MB)
	Total:                                     3.535 (MW) /     28.279 (MB)

	Size of irrep 0 of <ab|cd> integrals:      1.082 (MW) /      8.653 (MB)
	Size of irrep 1 of <ab|cd> integrals:      0.726 (MW) /      5.807 (MB)
	Size of irrep 2 of <ab|cd> integrals:      0.789 (MW) /      6.308 (MB)
	Size of irrep 3 of <ab|cd> integrals:      1.098 (MW) /      8.786 (MB)
	Total:                                     3.694 (MW) /     29.555 (MB)

	Size of irrep 0 of <Ab|Cd> integrals:      4.622 (MW) /     36.980 (MB)
	Size of irrep 1 of <Ab|Cd> integrals:      2.816 (MW) /     22.525 (MB)
	Size of irrep 2 of <Ab|Cd> integrals:      3.042 (MW) /     24.332 (MB)
	Size of irrep 3 of <Ab|Cd> integrals:      4.343 (MW) /     34.744 (MB)
	Total:                                    14.823 (MW) /    118.582 (MB)

	Size of irrep 0 of <IA|BC> integrals:      0.228 (MW) /      1.826 (MB)
	Size of irrep 1 of <IA|BC> integrals:      0.111 (MW) /      0.885 (MB)
	Size of irrep 2 of <IA|BC> integrals:      0.134 (MW) /      1.068 (MB)
	Size of irrep 3 of <IA|BC> integrals:      0.199 (MW) /      1.591 (MB)
	Total:                                     0.671 (MW) /      5.371 (MB)

	Size of irrep 0 of <ia|bc> integrals:      0.195 (MW) /      1.561 (MB)
	Size of irrep 1 of <ia|bc> integrals:      0.072 (MW) /      0.573 (MB)
	Size of irrep 2 of <ia|bc> integrals:      0.085 (MW) /      0.682 (MB)
	Size of irrep 3 of <ia|bc> integrals:      0.176 (MW) /      1.409 (MB)
	Total:                                     0.528 (MW) /      4.224 (MB)

	Size of irrep 0 of <Ia|Bc> integrals:      0.232 (MW) /      1.858 (MB)
	Size of irrep 1 of <Ia|Bc> integrals:      0.114 (MW) /      0.913 (MB)
	Size of irrep 2 of <Ia|Bc> integrals:      0.140 (MW) /      1.116 (MB)
	Size of irrep 3 of <Ia|Bc> integrals:      0.200 (MW) /      1.601 (MB)
	Total:                                     0.686 (MW) /      5.487 (MB)

	Size of irrep 0 of <iA|bC> integrals:      0.194 (MW) /      1.548 (MB)
	Size of irrep 1 of <iA|bC> integrals:      0.069 (MW) /      0.550 (MB)
	Size of irrep 2 of <iA|bC> integrals:      0.080 (MW) /      0.642 (MB)
	Size of irrep 3 of <iA|bC> integrals:      0.175 (MW) /      1.400 (MB)
	Total:                                     0.518 (MW) /      4.141 (MB)

	Size of irrep 0 of tIjAb amplitudes:       0.011 (MW) /      0.086 (MB)
	Size of irrep 1 of tIjAb amplitudes:       0.002 (MW) /      0.013 (MB)
	Size of irrep 2 of tIjAb amplitudes:       0.003 (MW) /      0.028 (MB)
	Size of irrep 3 of tIjAb amplitudes:       0.008 (MW) /      0.067 (MB)
	Total:                                     0.024 (MW) /      0.194 (MB)

	Nuclear Rep. energy          =      8.82225915416337
	SCF energy                   =    -75.70514965713079
	One-electron energy          =    -37.33513669596930
	Two-electron (AA) energy     =      3.70326528630836
	Two-electron (BB) energy     =      1.75443306709115
	Two-electron (AB) energy     =      8.62547970402798
	Two-electron energy          =     14.08317805742749
	Reference energy             =    -75.70514965713082

*** tstop() called on node3 at Sat Nov  5 10:19:36 2022
Module time:
	user time   =       2.64 seconds =       0.04 minutes
	system time =       1.35 seconds =       0.02 minutes
	total time  =          4 seconds =       0.07 minutes
Total time:
	user time   =       9.57 seconds =       0.16 minutes
	system time =       1.59 seconds =       0.03 minutes
	total time  =          7 seconds =       0.12 minutes

*** tstart() called on node3
*** at Sat Nov  5 10:19:36 2022

            **************************
            *                        *
            *        CCENERGY        *
            *                        *
            **************************

    Nuclear Rep. energy (wfn)     =    8.822259154163365
    SCF energy          (wfn)     =  -75.705149657130789
    Reference energy    (file100) =  -75.705149657130818

    Input parameters:
    -----------------
    Wave function   =     CC3
    Reference wfn   =     ROHF changed to UHF for Semicanonical Orbitals
    Brueckner       =     No
    Memory (Mbytes) =     31950.0
    Maxiter         =    500
    R_Convergence   =     1.0e-12
    E_Convergence   =     1.0e-06
    Restart         =     Yes
    DIIS            =     Yes
    AO Basis        =     NONE
    ABCD            =     NEW
    Cache Level     =     0
    Cache Type      =     LRU
    Print Level     =     1
    Num. of threads =     4
    # Amps to Print =     10
    Print MP2 Amps? =     No
    Analyze T2 Amps =     No
    Print Pair Ener =     No
    Local CC        =     No
    T3 Ws incore    =     No
    SCS-MP2         =     False
    SCSN-MP2        =     False
    SCS-CCSD        =     False

MP2 correlation energy -0.2068540481120364
                Solving CC Amplitude Equations
                ------------------------------
  Iter             Energy              RMS        T1Diag      D1Diag    New D1Diag    D2Diag
  ----     ---------------------    ---------   ----------  ----------  ----------   --------
     0        -0.206912216259685    0.000e+00    0.013481    0.000000    0.000000    0.000000
     1        -0.221880393506184    3.313e-02    0.016589    0.000000    0.000000    0.000000
     2        -0.226852074514830    1.201e-02    0.018287    0.000000    0.000000    0.000000
     3        -0.227142889787400    4.050e-03    0.018835    0.000000    0.000000    0.000000
     4        -0.227153717720988    1.751e-03    0.018897    0.000000    0.000000    0.000000
     5        -0.227188819374858    7.232e-04    0.018868    0.000000    0.000000    0.000000
     6        -0.227192247877834    2.376e-04    0.018835    0.000000    0.000000    0.000000
     7        -0.227194396799300    9.077e-05    0.018825    0.000000    0.000000    0.000000
     8        -0.227194229921653    3.184e-05    0.018823    0.000000    0.000000    0.000000
     9        -0.227194195728719    1.067e-05    0.018824    0.000000    0.000000    0.000000
    10        -0.227194310459902    3.911e-06    0.018824    0.000000    0.000000    0.000000
    11        -0.227194248679885    1.313e-06    0.018824    0.000000    0.000000    0.000000
    12        -0.227194231739140    3.933e-07    0.018824    0.000000    0.000000    0.000000
    13        -0.227194221768077    1.080e-07    0.018824    0.000000    0.000000    0.000000
    14        -0.227194221383009    3.245e-08    0.018824    0.000000    0.000000    0.000000
    15        -0.227194221324828    1.240e-08    0.018824    0.000000    0.000000    0.000000
    16        -0.227194221245758    5.586e-09    0.018824    0.000000    0.000000    0.000000
    17        -0.227194221146648    2.500e-09    0.018824    0.000000    0.000000    0.000000
    18        -0.227194221086167    1.030e-09    0.018824    0.000000    0.000000    0.000000
    19        -0.227194221076983    4.150e-10    0.018824    0.000000    0.000000    0.000000
    20        -0.227194221078022    1.457e-10    0.018824    0.000000    0.000000    0.000000
    21        -0.227194221077274    5.030e-11    0.018824    0.000000    0.000000    0.000000
    22        -0.227194221077344    1.764e-11    0.018824    0.000000    0.000000    0.000000
    23        -0.227194221077318    5.262e-12    0.018824    0.000000    0.000000    0.000000
    24        -0.227194221077353    1.726e-12    0.018824    0.000000    0.000000    0.000000
    25        -0.227194221077360    4.990e-13    0.018824    0.000000    0.000000    0.000000

    Iterations converged.


    Largest TIA Amplitudes:
              0  14         0.0095889745
              0   0         0.0087648657
              0   6         0.0085333108
              0  15         0.0085157903
              0   5        -0.0078010494
              0  17        -0.0077988674
              0   7         0.0076114296
              0   2        -0.0073491409
              2  44        -0.0061590649
              0   4         0.0057329917

    Largest Tia Amplitudes:
              1   1         0.0107168162
              2  63        -0.0104129706
              0   0        -0.0098649489
              0   2         0.0096969398
              2  62        -0.0091015870
              2  66         0.0086025866
              0  17         0.0082470046
              0   7         0.0080877253
              1   4         0.0078958309
              1   0        -0.0078909368

    Largest TIJAB Amplitudes:
      2   1  47   9        -0.0084658691
      3   2  65  47        -0.0080649751
      3   2  33   6         0.0079798472
      2   1  51  17         0.0076631046
      3   1  65   9        -0.0071004736
      3   2  62  47         0.0070991504
      2   1  46   7        -0.0069649221
      3   2  61  47         0.0068574894
      2   1  48   9        -0.0066986024
      2   1  44   9         0.0066549900

    Largest Tijab Amplitudes:
      1   0  47  44         0.0081369182
      2   0  44  33         0.0077315992
      1   0  52  44        -0.0074314446
      2   1  66   9        -0.0071763841
      2   1  63   6         0.0070477455
      2   1  66   6        -0.0067849689
      2   1  67   6        -0.0064276253
      2   1  62   9         0.0063126794
      2   1  66   1        -0.0061574663
      2   0  44  36         0.0060962811

    Largest TIjAb Amplitudes:
      3   2  65  66        -0.0191531525
      1   1   9   9        -0.0179406765
      3   2  62  66         0.0173390778
      3   2  65  63         0.0172222995
      2   0   0  44         0.0164160553
      2   0   6  44         0.0161238161
      3   2  62  63        -0.0160287301
      2   0  14  44         0.0152992765
      3   2  61  66         0.0151229005
      1   0  51  44        -0.0149195635

    SCF energy       (wfn)                    =  -75.705149657130789
    Reference energy (file100)                =  -75.705149657130818

    Opposite-spin MP2 correlation energy      =   -0.157914935542894
    Same-spin MP2 correlation energy          =   -0.045336766268469
    MP2 correlation energy                    =   -0.206854048112036
      * MP2 total energy                      =  -75.912003705242853
    CC3 correlation energy                    =   -0.227194221077360
      * CC3 total energy                      =  -75.932343878208172


*** tstop() called on node3 at Sat Nov  5 10:22:08 2022
Module time:
	user time   =     556.76 seconds =       9.28 minutes
	system time =      50.15 seconds =       0.84 minutes
	total time  =        152 seconds =       2.53 minutes
Total time:
	user time   =     566.34 seconds =       9.44 minutes
	system time =      51.74 seconds =       0.86 minutes
	total time  =        159 seconds =       2.65 minutes

*** tstart() called on node3
*** at Sat Nov  5 10:22:08 2022


			**************************
			*                        *
			*         CCHBAR         *
			*                        *
			**************************

Dots of (HeT1)c in names "CC3 Wxxx" in CC3_HET1 
Wamef terms
	<WAMEF|WAMEF> =   13.2995472272
	<Wamef|Wamef> =   10.8488469145
	<WAmEf|WAmEf> =    9.3134249368
	<WaMeF|WaMeF> =   12.6590078978
Wmnie terms
	<WMNIE (M>N,IE)|WMNIE> =    0.7441245023
	<Wmnie (m>n,ie)|Wmnie> =    0.3279200456
	<WMnIe (Mn,Ie)|WMnIe> =    0.7253675387
	<WmNiE (mN,iE)|WmNiE> =    0.6143114758
	<WMNIE(M>N,EI)|WMNIE(M>N,EI)> =    0.7441245023
	<Wmnie(m>n,ei)|Wmnie(m>n,ei)> =    0.3279200456
	<WMnIe(Mn,eI)|WMnIe(Mn,eI)> =    0.7253675387
	<WmNiE(mN,Ei)|WmNiE(mN,Ei)> =    0.6143114758
Doing Wmnij terms.
	<WMNIJ (M>N,I>J)|WMNIJ> =    9.2397824726
	<Wmnij (m>n,i>j)|Wmnij> =    4.0537533594
	<WMnIj (Mn,Ij)|WMnIj> =    6.4014403413
Doing Wmbij terms.
	<WMBIJ (MB,I>J)|WMBIJ> =    0.7494379553
	<WMBIJ (I>J,MB)|WMBIJ> =    0.7494379553
	<Wmbij (mb,i>j)|Wmbij> =    0.3337087946
	<Wmbij (i>j,mb)|Wmbij> =    0.3337087946
	<WMbIj (Mb,Ij)|WMbIj> =    0.7287931214
	<WMbIj (Ij,Mb)|WMbIj> =    0.7287931214
	<WmBiJ (mB,iJ)|WmBiJ> =    0.6176517054
	<WmBiJ (iJ,mB)|WmBiJ> =    0.6176517054
Doing Wmbej terms.
	<WMBEJ (all ME,JB)|WMBEJ> =   81.9757897426
	<Wmbej|Wmbej> =   62.0628615018
	<WMbEj|WMbEj> =    1.0306800275
	<WmBeJ|WmBeJ> =    1.0401296111
	<WMbeJ|WMbeJ> =   95.0137377159
	<WmBEj|WmBEj> =   68.0610009665
Doing Wabei terms.
	<WABEI (IE,B>A) |WABEI> =   13.3527856967
	<Wabei (ie,b>a)|Wabei> =   10.9465295435
	<WAbEi (iE,bA)|WAbEi> =    9.3874064414
	<WAbEi (iE,Ba)|WAbEi> =   12.6936512069

*** tstop() called on node3 at Sat Nov  5 10:22:10 2022
Module time:
	user time   =       3.85 seconds =       0.06 minutes
	system time =       0.83 seconds =       0.01 minutes
	total time  =          2 seconds =       0.03 minutes
Total time:
	user time   =     570.19 seconds =       9.50 minutes
	system time =      52.58 seconds =       0.88 minutes
	total time  =        161 seconds =       2.68 minutes

*** tstart() called on node3
*** at Sat Nov  5 10:22:10 2022


	**********************************************************
	*  CCEOM: An Equation of Motion Coupled Cluster Program  *
	**********************************************************

	Nuclear Rep. energy (wfn)     =    8.822259154163365
	SCF energy          (wfn)     =  -75.705149657130789
	Reference energy    (file100) =  -75.705149657130818
	CC3 energy          (file100) =   -0.227194221077360

	Input parameters:
	-----------------
	Reference wfn   = ROHF changed to UHF for Semicanonical Orbitals
	Reference EOM wfn=     UHF
	Memory (Mbytes) =  31950.0
	ABCD            =     NEW
	Cache Level     =    0
	Cache Type      =     LRU
	T3 Ws incore  =      No
	Num. of threads =     4
	Local CC        =     No


	CCEOM parameters:
	-----------------
	States sought per irrep     = A1 0, A2 0, B1 1, B2 0,
	Max. number of iterations   =   500
	Vectors stored per root     =    12
	Print HbarSS iterations?    =     0
	Excitation range for HBarSS =     2
	Eigenvalue tolerance        = 1.0e-06
	Eigenvalue toleranceSS      = 1.0e-06
	Residual vector tolerance   = 1.0e-08
	Residual vector toleranceSS = 1.0e-06
	Complex tolerance           = 1.0e-12
	Root for properties         =     1
	Sym of state for properties =     A1
	Guess vectors taken from    = SINGLES
	Restart EOM CC3             = NO
	Collapse with last vector   = YES


Symmetry of ground state: B1
Symmetry of excited state: B1
Symmetry of right eigenvector: A1
Obtaining initial guess from singles-singles block of Hbar...Done.

Iter=1    L=1     Root    EOM Energy     Delta E   Res. Norm    Conv?
                     1   0.5807472268   5.81e-01    5.15e-01      N
Iter=2    L=2     Root    EOM Energy     Delta E   Res. Norm    Conv?
                     1   0.4886331347  -9.21e-02    9.71e-02      N
Iter=3    L=3     Root    EOM Energy     Delta E   Res. Norm    Conv?
                     1   0.4825161744  -6.12e-03    6.28e-02      N
Iter=4    L=4     Root    EOM Energy     Delta E   Res. Norm    Conv?
                     1   0.4793698924  -3.15e-03    4.58e-02      N
Iter=5    L=5     Root    EOM Energy     Delta E   Res. Norm    Conv?
                     1   0.4781711658  -1.20e-03    2.68e-02      N
Iter=6    L=6     Root    EOM Energy     Delta E   Res. Norm    Conv?
                     1   0.4777438533  -4.27e-04    1.35e-02      N
Iter=7    L=7     Root    EOM Energy     Delta E   Res. Norm    Conv?
                     1   0.4776073438  -1.37e-04    8.67e-03      N
Iter=8    L=8     Root    EOM Energy     Delta E   Res. Norm    Conv?
                     1   0.4775331931  -7.42e-05    6.19e-03      N
Iter=9    L=9     Root    EOM Energy     Delta E   Res. Norm    Conv?
                     1   0.4774975518  -3.56e-05    3.85e-03      N
Iter=10   L=10    Root    EOM Energy     Delta E   Res. Norm    Conv?
                     1   0.4774865137  -1.10e-05    3.01e-03      N
Iter=11   L=11    Root    EOM Energy     Delta E   Res. Norm    Conv?
                     1   0.4774762850  -1.02e-05    2.43e-03      N
Iter=12   L=12    Root    EOM Energy     Delta E   Res. Norm    Conv?
                     1   0.4774724586  -3.83e-06    1.39e-03      N
Iter=13   L=2     Root    EOM Energy     Delta E   Res. Norm    Conv?
                     1   0.4774724586  -1.11e-15    1.39e-03      N
Iter=14   L=3     Root    EOM Energy     Delta E   Res. Norm    Conv?
                     1   0.4774717013  -7.57e-07    6.73e-04      N
Iter=15   L=4     Root    EOM Energy     Delta E   Res. Norm    Conv?
                     1   0.4774719448   2.43e-07    3.98e-04      N
Iter=16   L=5     Root    EOM Energy     Delta E   Res. Norm    Conv?
                     1   0.4774712336  -7.11e-07    2.23e-04      N
Iter=17   L=6     Root    EOM Energy     Delta E   Res. Norm    Conv?
                     1   0.4774708363  -3.97e-07    9.47e-05      N
Iter=18   L=7     Root    EOM Energy     Delta E   Res. Norm    Conv?
                     1   0.4774709360   9.96e-08    3.65e-05      N
Iter=19   L=8     Root    EOM Energy     Delta E   Res. Norm    Conv?
                     1   0.4774708956  -4.04e-08    1.46e-05      N
Iter=20   L=9     Root    EOM Energy     Delta E   Res. Norm    Conv?
                     1   0.4774708905  -5.10e-09    6.63e-06      N
Iter=21   L=10    Root    EOM Energy     Delta E   Res. Norm    Conv?
                     1   0.4774708889  -1.58e-09    2.72e-06      N
Iter=22   L=11    Root    EOM Energy     Delta E   Res. Norm    Conv?
                     1   0.4774708914   2.55e-09    1.00e-06      N
Iter=23   L=12    Root    EOM Energy     Delta E   Res. Norm    Conv?
                     1   0.4774708953   3.82e-09    4.38e-07      N
Iter=24   L=2     Root    EOM Energy     Delta E   Res. Norm    Conv?
                     1   0.4774708953   5.75e-13    4.38e-07      N
Iter=25   L=3     Root    EOM Energy     Delta E   Res. Norm    Conv?
                     1   0.4774708959   5.94e-10    2.92e-07      N
Iter=26   L=4     Root    EOM Energy     Delta E   Res. Norm    Conv?
                     1   0.4774708961   2.83e-10    2.08e-07      N
Iter=27   L=5     Root    EOM Energy     Delta E   Res. Norm    Conv?
                     1   0.4774708968   6.69e-10    1.38e-07      N
Iter=28   L=6     Root    EOM Energy     Delta E   Res. Norm    Conv?
                     1   0.4774708970   2.23e-10    8.80e-08      N
Iter=29   L=7     Root    EOM Energy     Delta E   Res. Norm    Conv?
                     1   0.4774708972   2.05e-10    5.75e-08      N
Iter=30   L=8     Root    EOM Energy     Delta E   Res. Norm    Conv?
                     1   0.4774708973   1.15e-11    3.98e-08      N
Iter=31   L=9     Root    EOM Energy     Delta E   Res. Norm    Conv?
                     1   0.4774708972  -2.23e-11    2.48e-08      N
Iter=32   L=10    Root    EOM Energy     Delta E   Res. Norm    Conv?
                     1   0.4774708972   2.73e-12    1.50e-08      N
Iter=33   L=11    Root    EOM Energy     Delta E   Res. Norm    Conv?
                     1   0.4774708972  -3.03e-11    9.64e-09      Y
Completed EOM_CCSD
Collapsing to only 1 vector(s).
Copying root 1 to CC3_MISC file.
Setting initial CC3 eigenvalue to    0.4774708972
Iter=1    L=1     Root    EOM Energy     Delta E   Res. Norm    Conv?
                     1   0.4722197317  -5.25e-03    4.35e-02      N
Iter=2    L=2     Root    EOM Energy     Delta E   Res. Norm    Conv?
                     1   0.4706733200  -1.55e-03    2.69e-02      N
Iter=3    L=3     Root    EOM Energy     Delta E   Res. Norm    Conv?
                     1   0.4692295286  -1.44e-03    4.25e-02      N
Iter=4    L=4     Root    EOM Energy     Delta E   Res. Norm    Conv?
                     1   0.4674163269  -1.81e-03    2.50e-02      N
Iter=5    L=5     Root    EOM Energy     Delta E   Res. Norm    Conv?
                     1   0.4670223362  -3.94e-04    1.31e-02      N
Iter=6    L=6     Root    EOM Energy     Delta E   Res. Norm    Conv?
                     1   0.4668879960  -1.34e-04    1.26e-02      N
Iter=7    L=7     Root    EOM Energy     Delta E   Res. Norm    Conv?
                     1   0.4667343660  -1.54e-04    9.50e-03      N
Iter=8    L=8     Root    EOM Energy     Delta E   Res. Norm    Conv?
                     1   0.4666501365  -8.42e-05    5.37e-03      N
Iter=9    L=9     Root    EOM Energy     Delta E   Res. Norm    Conv?
                     1   0.4666442911  -5.85e-06    2.41e-03      N
Iter=10   L=10    Root    EOM Energy     Delta E   Res. Norm    Conv?
                     1   0.4666432089  -1.08e-06    1.22e-03      N
Collapsing to 2 vector(s).
Change in CC3 energy from last iterated value   -0.0108276883
Iter=11   L=2     Root    EOM Energy     Delta E   Res. Norm    Conv?
                     1   0.4666707066   2.75e-05    1.22e-03      N
Iter=12   L=3     Root    EOM Energy     Delta E   Res. Norm    Conv?
                     1   0.4666684221  -2.28e-06    7.98e-04      N
Iter=13   L=4     Root    EOM Energy     Delta E   Res. Norm    Conv?
                     1   0.4666681827  -2.39e-07    4.87e-04      N
Iter=14   L=5     Root    EOM Energy     Delta E   Res. Norm    Conv?
                     1   0.4666685468   3.64e-07    2.25e-04      N
Iter=15   L=6     Root    EOM Energy     Delta E   Res. Norm    Conv?
                     1   0.4666679277  -6.19e-07    1.20e-04      N
Iter=16   L=7     Root    EOM Energy     Delta E   Res. Norm    Conv?
                     1   0.4666679199  -7.79e-09    7.45e-05      N
Iter=17   L=8     Root    EOM Energy     Delta E   Res. Norm    Conv?
                     1   0.4666682285   3.09e-07    5.54e-05      N
Iter=18   L=9     Root    EOM Energy     Delta E   Res. Norm    Conv?
                     1   0.4666682904   6.18e-08    4.72e-05      N
Iter=19   L=10    Root    EOM Energy     Delta E   Res. Norm    Conv?
                     1   0.4666682651  -2.53e-08    3.37e-05      N
Collapsing to 2 vector(s).
Change in CC3 energy from last iterated value    0.0000250561
Iter=20   L=2     Root    EOM Energy     Delta E   Res. Norm    Conv?
                     1   0.4666681707  -9.44e-08    3.33e-05      N
Iter=21   L=3     Root    EOM Energy     Delta E   Res. Norm    Conv?
                     1   0.4666682044   3.37e-08    1.84e-05      N
Iter=22   L=4     Root    EOM Energy     Delta E   Res. Norm    Conv?
                     1   0.4666682240   1.95e-08    1.00e-05      N
Iter=23   L=5     Root    EOM Energy     Delta E   Res. Norm    Conv?
                     1   0.4666682341   1.02e-08    4.66e-06      N
Iter=24   L=6     Root    EOM Energy     Delta E   Res. Norm    Conv?
                     1   0.4666682353   1.15e-09    2.03e-06      N
Iter=25   L=7     Root    EOM Energy     Delta E   Res. Norm    Conv?
                     1   0.4666682344  -9.10e-10    1.04e-06      N
Iter=26   L=8     Root    EOM Energy     Delta E   Res. Norm    Conv?
                     1   0.4666682329  -1.41e-09    5.37e-07      N
Iter=27   L=9     Root    EOM Energy     Delta E   Res. Norm    Conv?
                     1   0.4666682330   8.69e-11    2.98e-07      N
Iter=28   L=10    Root    EOM Energy     Delta E   Res. Norm    Conv?
                     1   0.4666682332   1.75e-10    2.09e-07      N
Collapsing to 2 vector(s).
Change in CC3 energy from last iterated value   -0.0000000319
Iter=29   L=2     Root    EOM Energy     Delta E   Res. Norm    Conv?
                     1   0.4666682333   1.20e-10    2.09e-07      N
Iter=30   L=3     Root    EOM Energy     Delta E   Res. Norm    Conv?
                     1   0.4666682333  -3.69e-11    1.25e-07      N
Iter=31   L=4     Root    EOM Energy     Delta E   Res. Norm    Conv?
                     1   0.4666682333   5.31e-12    6.34e-08      N
Iter=32   L=5     Root    EOM Energy     Delta E   Res. Norm    Conv?
                     1   0.4666682333   8.75e-12    2.68e-08      N
Iter=33   L=6     Root    EOM Energy     Delta E   Res. Norm    Conv?
                     1   0.4666682333  -1.34e-12    1.20e-08      N
Iter=34   L=7     Root    EOM Energy     Delta E   Res. Norm    Conv?
                     1   0.4666682333   3.29e-12    6.08e-09      Y
Collapsing to only 1 vector(s).
Change in CC3 energy from last iterated value    0.0000000001

Procedure converged for 1 root(s).
Energy written to CC_INFO:Etot  -75.4656756449
States per irrep written to CC_INFO.
<R|R> =   0.9999999999999998
EOM CC3 R0 for root 0 =  -0.00390909414

Final Energetic Summary for Converged Roots of Irrep B1
                     Excitation Energy              Total Energy
                (eV)     (cm^-1)     (au)             (au)
EOM State 1     12.699   102421.8   0.4666682333   -75.465675644901

Largest components of excited wave function #1:
 RIA (libdpd indices) : (cscf notation)
         1 >   0      :       3a1 >    4a1 :    0.4925747774
         1 >   2      :       3a1 >    6a1 :   -0.1753016378
         1 >   5      :       3a1 >    9a1 :   -0.1362369999
         1 >   1      :       3a1 >    5a1 :    0.1245151539
         1 >   4      :       3a1 >    8a1 :    0.0511492316
 Ria (libdpd indices) : (cscf notation)
         1 >   0      :       3a1 >    4a1 :   -0.5842089916
         1 >   2      :       3a1 >    6a1 :    0.2353001343
         1 >   5      :       3a1 >    9a1 :    0.1715143301
         1 >   1      :       3a1 >    5a1 :    0.1366098079
         1 >   4      :       3a1 >    8a1 :    0.0585941179
 RIjAb (libdpd indices)     : (cscf notation)
        0   1 >   0   0     :    1b1    3a1 >    4a1    1b1 :   -0.3348384168
        0   1 >   2   0     :    1b1    3a1 >    6a1    1b1 :    0.1193476583
        0   1 >   0   1     :    1b1    3a1 >    4a1    2b1 :    0.0954259229
        0   1 >   5   0     :    1b1    3a1 >    9a1    1b1 :    0.0931691480
        0   1 >   1   0     :    1b1    3a1 >    5a1    1b1 :   -0.0824306518
 RIJAB (libdpd indices)     : (cscf notation)
        0   1 >   3   0     :    1b1    3a1 >    5b1    4a1 :   -0.0200367527
        0   1 >   0   0     :    1b1    3a1 >    2b1    4a1 :    0.0193814909
        0   1 >   4   0     :    1b2    3a1 >    6b2    4a1 :   -0.0190740779
        0   1 >   1   0     :    1b2    3a1 >    3b2    4a1 :    0.0182459927
        0   1 >   0   0     :    1b2    3a1 >    2b2    4a1 :    0.0166860767
 Rijab (libdpd indices)     : (cscf notation)
        0   1 >   4   0     :    1b2    3a1 >    6b2    4a1 :    0.0241448270
        0   1 >   1   0     :    1b2    3a1 >    3b2    4a1 :   -0.0233248804
        0   1 >   0   0     :    1b2    3a1 >    2b2    4a1 :   -0.0202068247
        0   1 >   8   0     :    1b2    3a1 >   10b2    4a1 :    0.0136418265
        1   0 >   5   0     :    3a1    2a1 >    9a1    4a1 :   -0.0096239340

	Putting into environment energy for root of R irrep 1 and root 1.
	Putting into environment CURRENT ENERGY:              -75.4656756449

	Total # of sigma evaluations: 68

*** tstop() called on node3 at Sat Nov  5 10:31:27 2022
Module time:
	user time   =    2066.32 seconds =      34.44 minutes
	system time =     159.22 seconds =       2.65 minutes
	total time  =        557 seconds =       9.28 minutes
Total time:
	user time   =    2636.51 seconds =      43.94 minutes
	system time =     211.80 seconds =       3.53 minutes
	total time  =        718 seconds =      11.97 minutes

    Psi4 stopped on: Saturday, 05 November 2022 10:31AM
    Psi4 wall time for execution: 0:11:57.63

*** Psi4 exiting successfully. Buy a developer a beer!
