
    -----------------------------------------------------------------------
          Psi4: An Open-Source Ab Initio Electronic Structure Package
                               Psi4 1.2 release

                         Git: Rev {HEAD} 9d4a61c 


    R. M. Parrish, L. A. Burns, D. G. A. Smith, A. C. Simmonett,
    A. E. DePrince III, E. G. Hohenstein, U. Bozkaya, A. Yu. Sokolov,
    R. Di Remigio, R. M. Richard, J. F. Gonthier, A. M. James,
    H. R. McAlexander, A. Kumar, M. Saitow, X. Wang, B. P. Pritchard,
    P. Verma, H. F. Schaefer III, K. Patkowski, R. A. King, E. F. Valeev,
    F. A. Evangelista, J. M. Turney, T. D. Crawford, and C. D. Sherrill,
    J. Chem. Theory Comput. 13(7) pp 3185--3197 (2017).
    (doi: 10.1021/acs.jctc.7b00174)


                         Additional Contributions by
    P. Kraus, H. Kruse, M. H. Lechner, M. C. Schieber, and R. A. Shaw

    -----------------------------------------------------------------------


    Psi4 started on: Saturday, 05 November 2022 10:19AM

    Process ID: 30666
    Host:       node4
    PSIDATADIR: /home/qc/psi4conda/share/psi4
    Memory:     500.0 MiB
    Threads:    4
    
  ==> Input File <==

--------------------------------------------------------------------------
#h2o SPECIAL eom-cc3
memory 31950 mb

molecule h2o{
1 2
H        0.0000000000       -1.5363420084       -0.9699243624
O        0.0000000000        0.0093518597        0.1169679445
H        0.0000000000        1.5269901487       -0.9633077721

units bohr
}
 
set globals {
 reference rohf
 basis aug-cc-pvtz-dk
 freeze_core true
 cachelevel=0
 relativistic x2c
 maxiter=500
 dertype none
 ints_tolerance 20
 roots_per_irrep = [0,1]
}

set scf d_convergence 12
set ccenergy r_convergence 12
set cceom r_convergence 8

energy('eom-cc3')--------------------------------------------------------------------------

  Memory set to  29.756 GiB by Python driver.

*** tstart() called on node4
*** at Sat Nov  5 10:19:31 2022

   => Loading Basis Set <=

    Name: AUG-CC-PVTZ-DK
    Role: ORBITAL
    Keyword: BASIS
    atoms 1, 3 entry H          line    45 file /home/qc/psi4conda/share/psi4/basis/aug-cc-pvtz-dk.gbs 
    atoms 2    entry O          line   324 file /home/qc/psi4conda/share/psi4/basis/aug-cc-pvtz-dk.gbs 


         ---------------------------------------------------------
                                   SCF
            by Justin Turney, Rob Parrish, Andy Simmonett
                             and Daniel Smith
                             ROHF Reference
                        4 Threads,  30469 MiB Core
         ---------------------------------------------------------

  ==> Geometry <==

    Molecular point group: cs
    Full point group: Cs

    Geometry (in Bohr), charge = 1, multiplicity = 2:

       Center              X                  Y                   Z               Mass       
    ------------   -----------------  -----------------  -----------------  -----------------
         H            1.544123949810     0.965623139545     0.000000000000     1.007825032070
         O           -0.001569918290    -0.121269167355     0.000000000000    15.994914619560
         H           -1.519208207290     0.959006549245     0.000000000000     1.007825032070

  Running in cs symmetry.

  Rotational constants: A =     28.64870  B =     12.72828  C =      8.81284 [cm^-1]
  Rotational constants: A = 858866.38096  B = 381584.14110  C = 264202.22691 [MHz]
  Nuclear repulsion =    8.854678941093256

  Charge       = 1
  Multiplicity = 2
  Electrons    = 9
  Nalpha       = 5
  Nbeta        = 4

  ==> Algorithm <==

  SCF Algorithm Type is PK.
  DIIS enabled.
  MOM disabled.
  Fractional occupation disabled.
  Guess Type is GWH.
  Energy threshold   = 1.00e-08
  Density threshold  = 1.00e-12
  Integral threshold = 1.00e-20

  ==> Primary Basis <==

  Basis Set: AUG-CC-PVTZ-DK
    Blend: AUG-CC-PVTZ-DK
    Number of shells: 32
    Number of basis function: 92
    Number of Cartesian functions: 105
    Spherical Harmonics?: true
    Max angular momentum: 3

   => Loading Basis Set <=

    Name: (AUG-CC-PVTZ-DK AUX)
    Role: DECON
    Keyword: BASIS_RELATIVISTIC
    atoms 1, 3 entry H          line    45 file /home/qc/psi4conda/share/psi4/basis/aug-cc-pvtz-dk.gbs func decontract
    atoms 2    entry O          line   324 file /home/qc/psi4conda/share/psi4/basis/aug-cc-pvtz-dk.gbs func decontract

  ==> Pre-Iterations <==

   -------------------------------------------------------
    Irrep   Nso     Nmo     Nalpha   Nbeta   Ndocc  Nsocc
   -------------------------------------------------------
     A'        62      62       0       0       0       0
     A"        30      30       0       0       0       0
   -------------------------------------------------------
    Total      92      92       5       4       4       1
   -------------------------------------------------------

 OEINTS: Using relativistic (X2C) overlap, kinetic, and potential integrals.
         ------------------------------------------------------------
         Spin-Free X2C Integrals at the One-Electron Level (SFX2C-1e)
                 by Prakash Verma and Francesco A. Evangelista
         ------------------------------------------------------------

  ==> X2C Options <==

    Computational Basis: AUG-CC-PVTZ-DK
    X2C Basis: (AUG-CC-PVTZ-DK AUX)
    The X2C Hamiltonian will be computed in the X2C Basis

    Comparing only 62 out of 76 elements of H_Dirac

    Comparing only 30 out of 32 elements of H_Dirac

    The 1-norm of |H_X2C - H_Dirac| is: 6.913332386927

    WARNING: The X2C and Dirac Hamiltonians have substatially different eigenvalues!
             This is probably caused by the recontraction of the basis set.

  ==> Integral Setup <==

  Using in-core PK algorithm.
   Calculation information:
      Number of atoms:                   3
      Number of AO shells:              32
      Number of primitives:             52
      Number of atomic orbitals:       105
      Number of basis functions:        92

      Integral cutoff                 1.00e-20
      Number of threads:                 4

  Performing in-core PK
  Using 18305562 doubles for integral storage.
  We computed 171364 shell quartets total.
  Whereas there are 139656 unique shell quartets.
    22.70 percent of shell quartets recomputed by reordering.

  ==> DiskJK: Disk-Based J/K Matrices <==

    J tasked:                  Yes
    K tasked:                  Yes
    wK tasked:                  No
    Memory (MB):             22852
    Schwarz Cutoff:          1E-20

    OpenMP threads:              4

  Minimum eigenvalue in the overlap matrix is 4.0259647010E-04.
  Using Symmetric Orthogonalization.

  SCF Guess: Generalized Wolfsberg-Helmholtz.

  ==> Iterations <==

                        Total Energy        Delta E     RMS |[F,P]|

    Occupation by irrep:
             Ap   App 
    DOCC [     4,    0 ]
    SOCC [     1,    0 ]

   @ROHF iter   1:   -70.11521529821380   -7.01152e+01   1.01626e-01 
    Occupation by irrep:
             Ap   App 
    DOCC [     4,    0 ]
    SOCC [     0,    1 ]

   @ROHF iter   2:   -72.21223489337450   -2.09702e+00   4.27006e-02 DIIS
   @ROHF iter   3:   -75.09905868212664   -2.88682e+00   2.87654e-02 DIIS
   @ROHF iter   4:   -75.66646397628809   -5.67405e-01   6.36008e-03 DIIS
   @ROHF iter   5:   -75.70499099553184   -3.85270e-02   3.33323e-04 DIIS
   @ROHF iter   6:   -75.70520041173617   -2.09416e-04   7.60378e-05 DIIS
   @ROHF iter   7:   -75.70521126737576   -1.08556e-05   1.41015e-05 DIIS
   @ROHF iter   8:   -75.70521167073935   -4.03364e-07   2.08232e-06 DIIS
   @ROHF iter   9:   -75.70521168068143   -9.94208e-09   5.90816e-07 DIIS
   @ROHF iter  10:   -75.70521168151006   -8.28635e-10   1.53632e-07 DIIS
   @ROHF iter  11:   -75.70521168156274   -5.26796e-11   2.54366e-08 DIIS
   @ROHF iter  12:   -75.70521168156478   -2.03215e-12   9.21018e-09 DIIS
   @ROHF iter  13:   -75.70521168156509   -3.12639e-13   1.31655e-09 DIIS
   @ROHF iter  14:   -75.70521168156510   -1.42109e-14   1.26148e-10 DIIS
   @ROHF iter  15:   -75.70521168156512   -1.42109e-14   1.90643e-11 DIIS
   @ROHF iter  16:   -75.70521168156507    4.26326e-14   3.55266e-12 DIIS
   @ROHF iter  17:   -75.70521168156510   -2.84217e-14   7.80913e-13 DIIS

  ==> Post-Iterations <==

    Orbital Energies [Eh]
    ---------------------

    Doubly Occupied:                                                      

       1Ap   -21.118874     2Ap    -1.805467     3Ap    -1.180496  
       4Ap    -1.050481  

    Singly Occupied:                                                      

       1App   -0.687918  

    Virtual:                                                              

       5Ap    -0.180450     6Ap    -0.116089     7Ap    -0.060912  
       2App   -0.057906     8Ap    -0.041531     9Ap    -0.026051  
      10Ap     0.010377    11Ap     0.018001     3App    0.036587  
       4App    0.069949    12Ap     0.072705    13Ap     0.163047  
      14Ap     0.179004    15Ap     0.196545    16Ap     0.322566  
      17Ap     0.347687    18Ap     0.408569     5App    0.422165  
       6App    0.422597    19Ap     0.518054     7App    0.554081  
      20Ap     0.581291    21Ap     0.598453     8App    0.606781  
       9App    0.623848    22Ap     0.661035    23Ap     0.667989  
      24Ap     0.728778    25Ap     0.743849    10App    0.749063  
      26Ap     0.829797    27Ap     0.863504    11App    0.873064  
      28Ap     0.962019    12App    1.165869    13App    1.227259  
      29Ap     1.242840    30Ap     1.414713    31Ap     1.438318  
      32Ap     1.588070    33Ap     1.690606    14App    1.832370  
      15App    1.899961    34Ap     1.944300    35Ap     1.980421  
      16App    2.004072    36Ap     2.050357    37Ap     2.088902  
      17App    2.304307    38Ap     2.316727    39Ap     2.321215  
      18App    2.454439    40Ap     2.489760    41Ap     3.173012  
      42Ap     3.316741    19App    3.577849    20App    3.591158  
      43Ap     3.775197    44Ap     3.787272    21App    3.907499  
      22App    3.966323    23App    3.971527    45Ap     4.052287  
      46Ap     4.071048    47Ap     4.212583    48Ap     4.290586  
      49Ap     4.622865    24App    4.649806    50Ap     4.758318  
      51Ap     4.843660    25App    4.939373    52Ap     5.238108  
      53Ap     5.608612    54Ap     6.061313    26App    6.203681  
      55Ap     6.298106    27App    6.607905    28App    6.705875  
      29App    6.731133    56Ap     6.772590    30App    6.849616  
      57Ap     6.854439    58Ap     6.986112    59Ap     7.318772  
      60Ap     7.418740    61Ap     8.116421    62Ap    14.311074  

    Final Occupation by Irrep:
             Ap   App 
    DOCC [     4,    0 ]
    SOCC [     0,    1 ]

  Energy converged.

  @ROHF Final Energy:   -75.70521168156510

   => Energetics <=

    Nuclear Repulsion Energy =              8.8546789410932565
    One-Electron Energy =                -117.6992939906873517
    Two-Electron Energy =                  33.1394033680289937
    Total Energy =                        -75.7052116815651033



Properties will be evaluated at   0.000000,   0.000000,   0.000000 [a0]

Properties computed using the SCF density matrix

  Nuclear Dipole Moment: [e a0]
     X:     0.0124      Y:     0.9545      Z:     0.0000

  Electronic Dipole Moment: [e a0]
     X:     0.0037      Y:     0.0039      Z:     0.0000

  Dipole Moment: [e a0]
     X:     0.0160      Y:     0.9584      Z:     0.0000     Total:     0.9585

  Dipole Moment: [D]
     X:     0.0408      Y:     2.4359      Z:     0.0000     Total:     2.4363


*** tstop() called on node4 at Sat Nov  5 10:19:33 2022
Module time:
	user time   =       5.75 seconds =       0.10 minutes
	system time =       0.17 seconds =       0.00 minutes
	total time  =          2 seconds =       0.03 minutes
Total time:
	user time   =       5.75 seconds =       0.10 minutes
	system time =       0.17 seconds =       0.00 minutes
	total time  =          2 seconds =       0.03 minutes
   => Loading Basis Set <=

    Name: (AUG-CC-PVTZ-DK AUX)
    Role: DECON
    Keyword: BASIS_RELATIVISTIC
    atoms 1, 3 entry H          line    45 file /home/qc/psi4conda/share/psi4/basis/aug-cc-pvtz-dk.gbs func decontract
    atoms 2    entry O          line   324 file /home/qc/psi4conda/share/psi4/basis/aug-cc-pvtz-dk.gbs func decontract

 MINTS: Wrapper to libmints.
   by Justin Turney

   Calculation information:
      Number of threads:                 4
      Number of atoms:                   3
      Number of AO shells:              32
      Number of SO shells:              32
      Number of primitives:             52
      Number of atomic orbitals:       105
      Number of basis functions:        92

      Number of irreps:                  2
      Integral cutoff                 1.00e-20
      Number of functions per irrep: [  62   30 ]

 OEINTS: Using relativistic (X2C) overlap, kinetic, and potential integrals.
         ------------------------------------------------------------
         Spin-Free X2C Integrals at the One-Electron Level (SFX2C-1e)
                 by Prakash Verma and Francesco A. Evangelista
         ------------------------------------------------------------

  ==> X2C Options <==

    Computational Basis: AUG-CC-PVTZ-DK
    X2C Basis: (AUG-CC-PVTZ-DK AUX)
    The X2C Hamiltonian will be computed in the X2C Basis

    Comparing only 62 out of 76 elements of H_Dirac

    Comparing only 30 out of 32 elements of H_Dirac

    The 1-norm of |H_X2C - H_Dirac| is: 6.913332386600

    WARNING: The X2C and Dirac Hamiltonians have substatially different eigenvalues!
             This is probably caused by the recontraction of the basis set.

 OEINTS: Overlap, kinetic, potential, dipole, and quadrupole integrals
         stored in file 35.

      Computing two-electron integrals...done
      Computed 4405735 non-zero two-electron integrals.
        Stored in file 33.


*** tstart() called on node4
*** at Sat Nov  5 10:19:34 2022


	Wfn Parameters:
	--------------------
	Wavefunction         = CC3
	Number of irreps     = 2
	Number of MOs        = 92
	Number of active MOs = 91
	AO-Basis             = NONE
	Semicanonical        = true
	Reference            = ROHF changed to UHF for semicanonical orbitals
	Print Level          = 1

	IRREP	# MOs	# FZDC	# DOCC	# SOCC	# VIRT	# FZVR
	-----	-----	------	------	------	------	------
	 Ap	   62	    1	    3	    0	    58	    0
	 App	   30	    0	    0	    1	    29	    0
	Transforming integrals...
	IWL integrals will be deleted.
	(OO|OO)...
	Presorting SO-basis two-electron integrals.
	Sorting File: SO Ints (nn|nn) nbuckets = 1
	Transforming the one-electron integrals and constructing Fock matrices
	Starting AA/AB first half-transformation.
	Sorting AA/AB half-transformed integrals.
	Starting BB first half-transformation.
	Sorting BB half-transformed integrals.
	First half integral transformation complete.
	Starting AA second half-transformation.
	Starting AB second half-transformation.
	Starting BB second half-transformation.
	Two-electron integral transformation complete.
	(OO|OV)...
	Starting AA second half-transformation.
	Starting AB second half-transformation.
	Starting BB second half-transformation.
	Two-electron integral transformation complete.
	(OO|VV)...
	Starting AA second half-transformation.
	Starting AB second half-transformation.
	Starting BB second half-transformation.
	Two-electron integral transformation complete.
	(OV|OO)...
	Starting AA/AB first half-transformation.
	Sorting AA/AB half-transformed integrals.
	Starting BB first half-transformation.
	Sorting BB half-transformed integrals.
	First half integral transformation complete.
	Starting AA second half-transformation.
	Starting AB second half-transformation.
	Starting BB second half-transformation.
	Two-electron integral transformation complete.
	(OV|OV)...
	Starting AA second half-transformation.
	Starting AB second half-transformation.
	Starting BB second half-transformation.
	Two-electron integral transformation complete.
	(OV|VV)...
	Starting AA second half-transformation.
	Starting AB second half-transformation.
	Starting BB second half-transformation.
	Two-electron integral transformation complete.
	(VV|OO)...
	Starting AA/AB first half-transformation.
	Sorting AA/AB half-transformed integrals.
	Starting BB first half-transformation.
	Sorting BB half-transformed integrals.
	First half integral transformation complete.
	Starting AA second half-transformation.
	Starting AB second half-transformation.
	Starting BB second half-transformation.
	Two-electron integral transformation complete.
	(VV|OV)...
	Starting AA second half-transformation.
	Starting AB second half-transformation.
	Starting BB second half-transformation.
	Two-electron integral transformation complete.
	(VV|VV)...
	Starting AA second half-transformation.
	Starting AB second half-transformation.
	Starting BB second half-transformation.
	Two-electron integral transformation complete.
	Frozen core energy     =    -61.28311973136410

	Size of irrep 0 of <AB|CD> integrals:      4.239 (MW) /     33.916 (MB)
	Size of irrep 1 of <AB|CD> integrals:      2.829 (MW) /     22.633 (MB)
	Total:                                     7.069 (MW) /     56.549 (MB)

	Size of irrep 0 of <ab|cd> integrals:      4.360 (MW) /     34.878 (MB)
	Size of irrep 1 of <ab|cd> integrals:      3.028 (MW) /     24.221 (MB)
	Total:                                     7.387 (MW) /     59.099 (MB)

	Size of irrep 0 of <Ab|Cd> integrals:     17.927 (MW) /    143.414 (MB)
	Size of irrep 1 of <Ab|Cd> integrals:     11.710 (MW) /     93.681 (MB)
	Total:                                    29.637 (MW) /    237.095 (MB)

	Size of irrep 0 of <IA|BC> integrals:      0.854 (MW) /      6.829 (MB)
	Size of irrep 1 of <IA|BC> integrals:      0.488 (MW) /      3.902 (MB)
	Total:                                     1.341 (MW) /     10.731 (MB)

	Size of irrep 0 of <ia|bc> integrals:      0.742 (MW) /      5.935 (MB)
	Size of irrep 1 of <ia|bc> integrals:      0.313 (MW) /      2.506 (MB)
	Total:                                     1.055 (MW) /      8.441 (MB)

	Size of irrep 0 of <Ia|Bc> integrals:      0.864 (MW) /      6.910 (MB)
	Size of irrep 1 of <Ia|Bc> integrals:      0.506 (MW) /      4.052 (MB)
	Total:                                     1.370 (MW) /     10.962 (MB)

	Size of irrep 0 of <iA|bC> integrals:      0.737 (MW) /      5.894 (MB)
	Size of irrep 1 of <iA|bC> integrals:      0.298 (MW) /      2.382 (MB)
	Total:                                     1.034 (MW) /      8.275 (MB)

	Size of irrep 0 of tIjAb amplitudes:       0.038 (MW) /      0.305 (MB)
	Size of irrep 1 of tIjAb amplitudes:       0.010 (MW) /      0.082 (MB)
	Total:                                     0.048 (MW) /      0.387 (MB)

	Nuclear Rep. energy          =      8.85467894109326
	SCF energy                   =    -75.70521168156510
	One-electron energy          =    -37.37083873706109
	Two-electron (AA) energy     =      3.70577233264304
	Two-electron (BB) energy     =      1.75588879256733
	Two-electron (AB) energy     =      8.63240672055645
	Two-electron energy          =     14.09406784576682
	Reference energy             =    -75.70521168156512

*** tstop() called on node4 at Sat Nov  5 10:19:42 2022
Module time:
	user time   =      18.86 seconds =       0.31 minutes
	system time =       3.32 seconds =       0.06 minutes
	total time  =          8 seconds =       0.13 minutes
Total time:
	user time   =      26.67 seconds =       0.44 minutes
	system time =       3.62 seconds =       0.06 minutes
	total time  =         11 seconds =       0.18 minutes

*** tstart() called on node4
*** at Sat Nov  5 10:19:42 2022

            **************************
            *                        *
            *        CCENERGY        *
            *                        *
            **************************

    Nuclear Rep. energy (wfn)     =    8.854678941093256
    SCF energy          (wfn)     =  -75.705211681565103
    Reference energy    (file100) =  -75.705211681565117

    Input parameters:
    -----------------
    Wave function   =     CC3
    Reference wfn   =     ROHF changed to UHF for Semicanonical Orbitals
    Brueckner       =     No
    Memory (Mbytes) =     31950.0
    Maxiter         =    500
    R_Convergence   =     1.0e-12
    E_Convergence   =     1.0e-06
    Restart         =     Yes
    DIIS            =     Yes
    AO Basis        =     NONE
    ABCD            =     NEW
    Cache Level     =     0
    Cache Type      =     LRU
    Print Level     =     1
    Num. of threads =     4
    # Amps to Print =     10
    Print MP2 Amps? =     No
    Analyze T2 Amps =     No
    Print Pair Ener =     No
    Local CC        =     No
    T3 Ws incore    =     No
    SCS-MP2         =     False
    SCSN-MP2        =     False
    SCS-CCSD        =     False

MP2 correlation energy -0.2066632341690722
                Solving CC Amplitude Equations
                ------------------------------
  Iter             Energy              RMS        T1Diag      D1Diag    New D1Diag    D2Diag
  ----     ---------------------    ---------   ----------  ----------  ----------   --------
     0        -0.206721225649345    0.000e+00    0.013465    0.000000    0.000000    0.000000
     1        -0.221692070454887    3.299e-02    0.016549    0.000000    0.000000    0.000000
     2        -0.226638493201530    1.193e-02    0.018228    0.000000    0.000000    0.000000
     3        -0.226925165973970    4.010e-03    0.018765    0.000000    0.000000    0.000000
     4        -0.226935593329347    1.730e-03    0.018824    0.000000    0.000000    0.000000
     5        -0.226969985853252    7.127e-04    0.018794    0.000000    0.000000    0.000000
     6        -0.226973362066725    2.329e-04    0.018762    0.000000    0.000000    0.000000
     7        -0.226975445820729    8.865e-05    0.018752    0.000000    0.000000    0.000000
     8        -0.226975276217404    3.114e-05    0.018750    0.000000    0.000000    0.000000
     9        -0.226975243429317    1.044e-05    0.018751    0.000000    0.000000    0.000000
    10        -0.226975354714137    3.817e-06    0.018751    0.000000    0.000000    0.000000
    11        -0.226975294615392    1.277e-06    0.018751    0.000000    0.000000    0.000000
    12        -0.226975278100939    3.817e-07    0.018751    0.000000    0.000000    0.000000
    13        -0.226975268464883    1.052e-07    0.018751    0.000000    0.000000    0.000000
    14        -0.226975268091686    3.210e-08    0.018751    0.000000    0.000000    0.000000
    15        -0.226975268042937    1.245e-08    0.018751    0.000000    0.000000    0.000000
    16        -0.226975267969007    5.618e-09    0.018751    0.000000    0.000000    0.000000
    17        -0.226975267874839    2.481e-09    0.018751    0.000000    0.000000    0.000000
    18        -0.226975267817783    1.012e-09    0.018751    0.000000    0.000000    0.000000
    19        -0.226975267809465    4.066e-10    0.018751    0.000000    0.000000    0.000000
    20        -0.226975267810477    1.429e-10    0.018751    0.000000    0.000000    0.000000
    21        -0.226975267809683    4.958e-11    0.018751    0.000000    0.000000    0.000000
    22        -0.226975267809702    1.768e-11    0.018751    0.000000    0.000000    0.000000
    23        -0.226975267809657    5.540e-12    0.018751    0.000000    0.000000    0.000000
    24        -0.226975267809681    1.958e-12    0.018751    0.000000    0.000000    0.000000
    25        -0.226975267809684    6.486e-13    0.018751    0.000000    0.000000    0.000000

    Iterations converged.


    Largest TIA Amplitudes:
              0  26         0.0091436489
              0   0        -0.0086717830
              0  12         0.0086143348
              0  28        -0.0085695518
              0   9         0.0077342527
              0  30         0.0075994361
              0  13         0.0075892818
              0   3        -0.0073260076
              3  58         0.0061254067
              0   7        -0.0057310662

    Largest Tia Amplitudes:
              2   2        -0.0106483622
              1   4        -0.0102772619
              0   0         0.0097591118
              0   3        -0.0096059003
              1   1         0.0089731930
              1  10        -0.0084805200
              0  30         0.0082529218
              0  13         0.0080945345
              0  12        -0.0078866640
              2   7         0.0078279191

    Largest TIJAB Amplitudes:
      3   2  63  15         0.0085530361
      3   1  63  10         0.0080910705
      3   1  62  12         0.0078222869
      3   2  70  30         0.0073858869
      3   1  63   4         0.0071199584
      2   1  15  10        -0.0070642441
      3   1  63   1        -0.0068561563
      3   2  61  13        -0.0068149874
      3   2  58  15         0.0066487909
      3   2  64  15         0.0065519148

    Largest Tijab Amplitudes:
      2   0  63  58        -0.0080818814
      1   0  62  58         0.0076581461
      2   0  71  58         0.0073926587
      2   1  15  10        -0.0071190733
      2   1  12   4        -0.0069913742
      2   1  12  10        -0.0067224137
      2   1  12  11         0.0064458167
      2   1  15   1         0.0062655571
      2   1  10   2         0.0061124169
      1   0  69  58        -0.0061075928

    Largest TIjAb Amplitudes:
      1   1  10  10        -0.0189618866
      2   2  15  15        -0.0179325083
      1   1   4  10        -0.0171429672
      1   1  10   4        -0.0170448545
      3   0   0  58         0.0162418291
      3   0  12  58        -0.0162352851
      1   1   4   4        -0.0158496534
      2   0  70  58        -0.0148239402
      1   1   1  10         0.0148196288
      3   0   3  58         0.0146988558

    SCF energy       (wfn)                    =  -75.705211681565103
    Reference energy (file100)                =  -75.705211681565117

    Opposite-spin MP2 correlation energy      =   -0.157770439141696
    Same-spin MP2 correlation energy          =   -0.045292724871881
    MP2 correlation energy                    =   -0.206663234169072
      * MP2 total energy                      =  -75.911874915734188
    CC3 correlation energy                    =   -0.226975267809684
      * CC3 total energy                      =  -75.932186949374795


*** tstop() called on node4 at Sat Nov  5 10:24:18 2022
Module time:
	user time   =    1021.66 seconds =      17.03 minutes
	system time =      78.01 seconds =       1.30 minutes
	total time  =        276 seconds =       4.60 minutes
Total time:
	user time   =    1048.34 seconds =      17.47 minutes
	system time =      81.63 seconds =       1.36 minutes
	total time  =        287 seconds =       4.78 minutes

*** tstart() called on node4
*** at Sat Nov  5 10:24:18 2022


			**************************
			*                        *
			*         CCHBAR         *
			*                        *
			**************************

Dots of (HeT1)c in names "CC3 Wxxx" in CC3_HET1 
Wamef terms
	<WAMEF|WAMEF> =   13.3045659667
	<Wamef|Wamef> =   10.8503830971
	<WAmEf|WAmEf> =    9.3172013843
	<WaMeF|WaMeF> =   12.6655454062
Wmnie terms
	<WMNIE (M>N,IE)|WMNIE> =    0.7441055630
	<Wmnie (m>n,ie)|Wmnie> =    0.3279871174
	<WMnIe (Mn,Ie)|WMnIe> =    0.7255605928
	<WmNiE (mN,iE)|WmNiE> =    0.6148631336
	<WMNIE(M>N,EI)|WMNIE(M>N,EI)> =    0.7441055630
	<Wmnie(m>n,ei)|Wmnie(m>n,ei)> =    0.3279871174
	<WMnIe(Mn,eI)|WMnIe(Mn,eI)> =    0.7255605928
	<WmNiE(mN,Ei)|WmNiE(mN,Ei)> =    0.6148631336
Doing Wmnij terms.
	<WMNIJ (M>N,I>J)|WMNIJ> =    9.2518616070
	<Wmnij (m>n,i>j)|Wmnij> =    4.0609256786
	<WMnIj (Mn,Ij)|WMnIj> =    6.4119636982
Doing Wmbij terms.
	<WMBIJ (MB,I>J)|WMBIJ> =    0.7493809539
	<WMBIJ (I>J,MB)|WMBIJ> =    0.7493809539
	<Wmbij (mb,i>j)|Wmbij> =    0.3337411058
	<Wmbij (i>j,mb)|Wmbij> =    0.3337411058
	<WMbIj (Mb,Ij)|WMbIj> =    0.7289530920
	<WMbIj (Ij,Mb)|WMbIj> =    0.7289530920
	<WmBiJ (mB,iJ)|WmBiJ> =    0.6181841485
	<WmBiJ (iJ,mB)|WmBiJ> =    0.6181841485
Doing Wmbej terms.
	<WMBEJ (all ME,JB)|WMBEJ> =   82.0919793913
	<Wmbej|Wmbej> =   62.1608882400
	<WMbEj|WMbEj> =    1.0316968564
	<WmBeJ|WmBeJ> =    1.0410912149
	<WMbeJ|WMbeJ> =   95.1446714228
	<WmBEj|WmBEj> =   68.1691857086
Doing Wabei terms.
	<WABEI (IE,B>A) |WABEI> =   13.3574354248
	<Wabei (ie,b>a)|Wabei> =   10.9470423337
	<WAbEi (iE,bA)|WAbEi> =    9.3902997675
	<WAbEi (iE,Ba)|WAbEi> =   12.6998876310

*** tstop() called on node4 at Sat Nov  5 10:24:21 2022
Module time:
	user time   =       6.96 seconds =       0.12 minutes
	system time =       1.38 seconds =       0.02 minutes
	total time  =          3 seconds =       0.05 minutes
Total time:
	user time   =    1055.31 seconds =      17.59 minutes
	system time =      83.01 seconds =       1.38 minutes
	total time  =        290 seconds =       4.83 minutes

*** tstart() called on node4
*** at Sat Nov  5 10:24:21 2022


	**********************************************************
	*  CCEOM: An Equation of Motion Coupled Cluster Program  *
	**********************************************************

	Nuclear Rep. energy (wfn)     =    8.854678941093256
	SCF energy          (wfn)     =  -75.705211681565103
	Reference energy    (file100) =  -75.705211681565117
	CC3 energy          (file100) =   -0.226975267809684

	Input parameters:
	-----------------
	Reference wfn   = ROHF changed to UHF for Semicanonical Orbitals
	Reference EOM wfn=     UHF
	Memory (Mbytes) =  31950.0
	ABCD            =     NEW
	Cache Level     =    0
	Cache Type      =     LRU
	T3 Ws incore  =      No
	Num. of threads =     4
	Local CC        =     No


	CCEOM parameters:
	-----------------
	States sought per irrep     = Ap 0, App 1,
	Max. number of iterations   =   500
	Vectors stored per root     =    12
	Print HbarSS iterations?    =     0
	Excitation range for HBarSS =     2
	Eigenvalue tolerance        = 1.0e-06
	Eigenvalue toleranceSS      = 1.0e-06
	Residual vector tolerance   = 1.0e-08
	Residual vector toleranceSS = 1.0e-06
	Complex tolerance           = 1.0e-12
	Root for properties         =     1
	Sym of state for properties =     Ap
	Guess vectors taken from    = SINGLES
	Restart EOM CC3             = NO
	Collapse with last vector   = YES


Symmetry of ground state: App
Symmetry of excited state: App
Symmetry of right eigenvector: Ap
Obtaining initial guess from singles-singles block of Hbar...Done.

Iter=1    L=1     Root    EOM Energy     Delta E   Res. Norm    Conv?
                     1   0.5833940841   5.83e-01    5.15e-01      N
Iter=2    L=2     Root    EOM Energy     Delta E   Res. Norm    Conv?
                     1   0.4912991935  -9.21e-02    9.68e-02      N
Iter=3    L=3     Root    EOM Energy     Delta E   Res. Norm    Conv?
                     1   0.4852024251  -6.10e-03    6.28e-02      N
Iter=4    L=4     Root    EOM Energy     Delta E   Res. Norm    Conv?
                     1   0.4820428512  -3.16e-03    4.60e-02      N
Iter=5    L=5     Root    EOM Energy     Delta E   Res. Norm    Conv?
                     1   0.4808341289  -1.21e-03    2.69e-02      N
Iter=6    L=6     Root    EOM Energy     Delta E   Res. Norm    Conv?
                     1   0.4804059757  -4.28e-04    1.35e-02      N
Iter=7    L=7     Root    EOM Energy     Delta E   Res. Norm    Conv?
                     1   0.4802695073  -1.36e-04    8.68e-03      N
Iter=8    L=8     Root    EOM Energy     Delta E   Res. Norm    Conv?
                     1   0.4801954479  -7.41e-05    6.25e-03      N
Iter=9    L=9     Root    EOM Energy     Delta E   Res. Norm    Conv?
                     1   0.4801592420  -3.62e-05    3.90e-03      N
Iter=10   L=10    Root    EOM Energy     Delta E   Res. Norm    Conv?
                     1   0.4801480150  -1.12e-05    3.05e-03      N
Iter=11   L=11    Root    EOM Energy     Delta E   Res. Norm    Conv?
                     1   0.4801378341  -1.02e-05    2.44e-03      N
Iter=12   L=12    Root    EOM Energy     Delta E   Res. Norm    Conv?
                     1   0.4801340258  -3.81e-06    1.39e-03      N
Iter=13   L=2     Root    EOM Energy     Delta E   Res. Norm    Conv?
                     1   0.4801340258  -1.67e-16    1.39e-03      N
Iter=14   L=3     Root    EOM Energy     Delta E   Res. Norm    Conv?
                     1   0.4801332818  -7.44e-07    6.79e-04      N
Iter=15   L=4     Root    EOM Energy     Delta E   Res. Norm    Conv?
                     1   0.4801335336   2.52e-07    4.07e-04      N
Iter=16   L=5     Root    EOM Energy     Delta E   Res. Norm    Conv?
                     1   0.4801328026  -7.31e-07    2.32e-04      N
Iter=17   L=6     Root    EOM Energy     Delta E   Res. Norm    Conv?
                     1   0.4801323724  -4.30e-07    1.04e-04      N
Iter=18   L=7     Root    EOM Energy     Delta E   Res. Norm    Conv?
                     1   0.4801324842   1.12e-07    4.89e-05      N
Iter=19   L=8     Root    EOM Energy     Delta E   Res. Norm    Conv?
                     1   0.4801324152  -6.90e-08    3.34e-05      N
Iter=20   L=9     Root    EOM Energy     Delta E   Res. Norm    Conv?
                     1   0.4801324011  -1.41e-08    2.90e-05      N
Iter=21   L=10    Root    EOM Energy     Delta E   Res. Norm    Conv?
                     1   0.4801324008  -3.36e-10    1.84e-05      N
Iter=22   L=11    Root    EOM Energy     Delta E   Res. Norm    Conv?
                     1   0.4801324177   1.69e-08    1.06e-05      N
Iter=23   L=12    Root    EOM Energy     Delta E   Res. Norm    Conv?
                     1   0.4801324316   1.39e-08    5.18e-06      N
Iter=24   L=2     Root    EOM Energy     Delta E   Res. Norm    Conv?
                     1   0.4801324316  -2.32e-14    5.18e-06      N
Iter=25   L=3     Root    EOM Energy     Delta E   Res. Norm    Conv?
                     1   0.4801324175  -1.41e-08    2.31e-06      N
Iter=26   L=4     Root    EOM Energy     Delta E   Res. Norm    Conv?
                     1   0.4801324138  -3.66e-09    1.35e-06      N
Iter=27   L=5     Root    EOM Energy     Delta E   Res. Norm    Conv?
                     1   0.4801324152   1.36e-09    9.13e-07      N
Iter=28   L=6     Root    EOM Energy     Delta E   Res. Norm    Conv?
                     1   0.4801324159   6.75e-10    4.60e-07      N
Iter=29   L=7     Root    EOM Energy     Delta E   Res. Norm    Conv?
                     1   0.4801324160   1.76e-10    2.01e-07      N
Iter=30   L=8     Root    EOM Energy     Delta E   Res. Norm    Conv?
                     1   0.4801324159  -1.16e-10    9.05e-08      N
Iter=31   L=9     Root    EOM Energy     Delta E   Res. Norm    Conv?
                     1   0.4801324159  -6.13e-11    4.59e-08      N
Iter=32   L=10    Root    EOM Energy     Delta E   Res. Norm    Conv?
                     1   0.4801324158  -1.91e-11    3.04e-08      N
Iter=33   L=11    Root    EOM Energy     Delta E   Res. Norm    Conv?
                     1   0.4801324158  -5.35e-11    2.00e-08      N
Iter=34   L=12    Root    EOM Energy     Delta E   Res. Norm    Conv?
                     1   0.4801324158   1.08e-11    1.37e-08      N
Iter=35   L=2     Root    EOM Energy     Delta E   Res. Norm    Conv?
                     1   0.4801324158  -1.48e-12    1.15e-08      N
Iter=36   L=3     Root    EOM Energy     Delta E   Res. Norm    Conv?
                     1   0.4801324158  -1.82e-11    9.25e-09      Y
Completed EOM_CCSD
Collapsing to only 1 vector(s).
Copying root 1 to CC3_MISC file.
Setting initial CC3 eigenvalue to    0.4801324158
Iter=1    L=1     Root    EOM Energy     Delta E   Res. Norm    Conv?
                     1   0.4749042427  -5.23e-03    4.35e-02      N
Iter=2    L=2     Root    EOM Energy     Delta E   Res. Norm    Conv?
                     1   0.4733619446  -1.54e-03    2.69e-02      N
Iter=3    L=3     Root    EOM Energy     Delta E   Res. Norm    Conv?
                     1   0.4719206725  -1.44e-03    4.25e-02      N
Iter=4    L=4     Root    EOM Energy     Delta E   Res. Norm    Conv?
                     1   0.4701083115  -1.81e-03    2.50e-02      N
Iter=5    L=5     Root    EOM Energy     Delta E   Res. Norm    Conv?
                     1   0.4697138518  -3.94e-04    1.31e-02      N
Iter=6    L=6     Root    EOM Energy     Delta E   Res. Norm    Conv?
                     1   0.4695776325  -1.36e-04    1.27e-02      N
Iter=7    L=7     Root    EOM Energy     Delta E   Res. Norm    Conv?
                     1   0.4694219366  -1.56e-04    9.56e-03      N
Iter=8    L=8     Root    EOM Energy     Delta E   Res. Norm    Conv?
                     1   0.4693371519  -8.48e-05    5.39e-03      N
Iter=9    L=9     Root    EOM Energy     Delta E   Res. Norm    Conv?
                     1   0.4693312231  -5.93e-06    2.41e-03      N
Iter=10   L=10    Root    EOM Energy     Delta E   Res. Norm    Conv?
                     1   0.4693300872  -1.14e-06    1.22e-03      N
Collapsing to 2 vector(s).
Change in CC3 energy from last iterated value   -0.0108023286
Iter=11   L=2     Root    EOM Energy     Delta E   Res. Norm    Conv?
                     1   0.4693575094   2.74e-05    1.22e-03      N
Iter=12   L=3     Root    EOM Energy     Delta E   Res. Norm    Conv?
                     1   0.4693551855  -2.32e-06    8.00e-04      N
Iter=13   L=4     Root    EOM Energy     Delta E   Res. Norm    Conv?
                     1   0.4693549406  -2.45e-07    4.87e-04      N
Iter=14   L=5     Root    EOM Energy     Delta E   Res. Norm    Conv?
                     1   0.4693553042   3.64e-07    2.26e-04      N
Iter=15   L=6     Root    EOM Energy     Delta E   Res. Norm    Conv?
                     1   0.4693546883  -6.16e-07    1.21e-04      N
Iter=16   L=7     Root    EOM Energy     Delta E   Res. Norm    Conv?
                     1   0.4693546841  -4.24e-09    7.55e-05      N
Iter=17   L=8     Root    EOM Energy     Delta E   Res. Norm    Conv?
                     1   0.4693549947   3.11e-07    5.61e-05      N
Iter=18   L=9     Root    EOM Energy     Delta E   Res. Norm    Conv?
                     1   0.4693550529   5.81e-08    4.75e-05      N
Iter=19   L=10    Root    EOM Energy     Delta E   Res. Norm    Conv?
                     1   0.4693550246  -2.83e-08    3.37e-05      N
Collapsing to 2 vector(s).
Change in CC3 energy from last iterated value    0.0000249374
Iter=20   L=2     Root    EOM Energy     Delta E   Res. Norm    Conv?
                     1   0.4693549308  -9.38e-08    3.33e-05      N
Iter=21   L=3     Root    EOM Energy     Delta E   Res. Norm    Conv?
                     1   0.4693549645   3.38e-08    1.86e-05      N
Iter=22   L=4     Root    EOM Energy     Delta E   Res. Norm    Conv?
                     1   0.4693549847   2.02e-08    1.04e-05      N
Iter=23   L=5     Root    EOM Energy     Delta E   Res. Norm    Conv?
                     1   0.4693549954   1.06e-08    5.05e-06      N
Iter=24   L=6     Root    EOM Energy     Delta E   Res. Norm    Conv?
                     1   0.4693549966   1.28e-09    2.40e-06      N
Iter=25   L=7     Root    EOM Energy     Delta E   Res. Norm    Conv?
                     1   0.4693549955  -1.14e-09    1.43e-06      N
Iter=26   L=8     Root    EOM Energy     Delta E   Res. Norm    Conv?
                     1   0.4693549938  -1.71e-09    8.58e-07      N
Iter=27   L=9     Root    EOM Energy     Delta E   Res. Norm    Conv?
                     1   0.4693549943   4.60e-10    5.29e-07      N
Iter=28   L=10    Root    EOM Energy     Delta E   Res. Norm    Conv?
                     1   0.4693549947   4.73e-10    3.27e-07      N
Collapsing to 2 vector(s).
Change in CC3 energy from last iterated value   -0.0000000299
Iter=29   L=2     Root    EOM Energy     Delta E   Res. Norm    Conv?
                     1   0.4693549948   1.12e-10    3.27e-07      N
Iter=30   L=3     Root    EOM Energy     Delta E   Res. Norm    Conv?
                     1   0.4693549948  -2.92e-11    1.64e-07      N
Iter=31   L=4     Root    EOM Energy     Delta E   Res. Norm    Conv?
                     1   0.4693549948   2.62e-11    8.57e-08      N
Iter=32   L=5     Root    EOM Energy     Delta E   Res. Norm    Conv?
                     1   0.4693549949   1.73e-11    5.59e-08      N
Iter=33   L=6     Root    EOM Energy     Delta E   Res. Norm    Conv?
                     1   0.4693549949  -4.01e-12    5.01e-08      N
Iter=34   L=7     Root    EOM Energy     Delta E   Res. Norm    Conv?
                     1   0.4693549949   4.86e-12    3.65e-08      N
Iter=35   L=8     Root    EOM Energy     Delta E   Res. Norm    Conv?
                     1   0.4693549949  -8.01e-12    1.88e-08      N
Iter=36   L=9     Root    EOM Energy     Delta E   Res. Norm    Conv?
                     1   0.4693549949  -1.76e-12    9.71e-09      Y
Collapsing to only 1 vector(s).
Change in CC3 energy from last iterated value    0.0000000001

Procedure converged for 1 root(s).
Energy written to CC_INFO:Etot  -75.4628319545
States per irrep written to CC_INFO.
<R|R> =   1.0000000000000000
EOM CC3 R0 for root 0 =   0.00383130300

Final Energetic Summary for Converged Roots of Irrep App
                     Excitation Energy              Total Energy
                (eV)     (cm^-1)     (au)             (au)
EOM State 1     12.772   103011.5   0.4693549949   -75.462831954524

Largest components of excited wave function #1:
 RIA (libdpd indices) : (cscf notation)
         2 >   0      :       4ap >    5ap :   -0.4916804157
         2 >   3      :       4ap >    8ap :   -0.1768242626
         2 >   9      :       4ap >   14ap :    0.1365433731
         2 >   2      :       4ap >    7ap :    0.1230615999
         2 >   7      :       4ap >   12ap :   -0.0509416478
 Ria (libdpd indices) : (cscf notation)
         2 >   0      :       4ap >    5ap :    0.5838705757
         2 >   3      :       4ap >    8ap :   -0.2365176415
         2 >   9      :       4ap >   14ap :   -0.1716933228
         2 >   2      :       4ap >    7ap :    0.1355054457
         2 >   7      :       4ap >   12ap :   -0.0583219349
 RIjAb (libdpd indices)     : (cscf notation)
        0   2 >   0   0     :   1app    4ap >    5ap   1app :   -0.3346425722
        0   2 >   3   0     :   1app    4ap >    8ap   1app :   -0.1205236217
        0   2 >   0   1     :   1app    4ap >    5ap   2app :    0.0950692241
        0   2 >   9   0     :   1app    4ap >   14ap   1app :    0.0934607060
        0   2 >   2   0     :   1app    4ap >    7ap   1app :    0.0815156537
 RIJAB (libdpd indices)     : (cscf notation)
        0   2 >   5   0     :   1app    4ap >   7app    5ap :    0.0202100016
        0   2 >   0   0     :   1app    4ap >   2app    5ap :    0.0193599579
        2   1 >  10   0     :    4ap    3ap >   15ap    5ap :    0.0189941354
        2   1 >   4   0     :    4ap    3ap >    9ap    5ap :    0.0181707969
        2   1 >   1   0     :    4ap    3ap >    6ap    5ap :   -0.0165509335
 Rijab (libdpd indices)     : (cscf notation)
        2   1 >  10   0     :    4ap    3ap >   15ap    5ap :   -0.0239949924
        2   1 >   4   0     :    4ap    3ap >    9ap    5ap :   -0.0232140771
        2   1 >   1   0     :    4ap    3ap >    6ap    5ap :    0.0200694471
        2   1 >  20   0     :    4ap    3ap >   25ap    5ap :    0.0136084785
        2   0 >   9   0     :    4ap    2ap >   14ap    5ap :   -0.0096015989

	Putting into environment energy for root of R irrep 1 and root 1.
	Putting into environment CURRENT ENERGY:              -75.4628319545

	Total # of sigma evaluations: 72

*** tstop() called on node4 at Sat Nov  5 10:40:24 2022
Module time:
	user time   =    3609.38 seconds =      60.16 minutes
	system time =     243.02 seconds =       4.05 minutes
	total time  =        963 seconds =      16.05 minutes
Total time:
	user time   =    4664.69 seconds =      77.74 minutes
	system time =     326.03 seconds =       5.43 minutes
	total time  =       1253 seconds =      20.88 minutes

    Psi4 stopped on: Saturday, 05 November 2022 10:40AM
    Psi4 wall time for execution: 0:20:53.18

*** Psi4 exiting successfully. Buy a developer a beer!
