
    -----------------------------------------------------------------------
          Psi4: An Open-Source Ab Initio Electronic Structure Package
                               Psi4 1.2 release

                         Git: Rev {HEAD} 9d4a61c 


    R. M. Parrish, L. A. Burns, D. G. A. Smith, A. C. Simmonett,
    A. E. DePrince III, E. G. Hohenstein, U. Bozkaya, A. Yu. Sokolov,
    R. Di Remigio, R. M. Richard, J. F. Gonthier, A. M. James,
    H. R. McAlexander, A. Kumar, M. Saitow, X. Wang, B. P. Pritchard,
    P. Verma, H. F. Schaefer III, K. Patkowski, R. A. King, E. F. Valeev,
    F. A. Evangelista, J. M. Turney, T. D. Crawford, and C. D. Sherrill,
    J. Chem. Theory Comput. 13(7) pp 3185--3197 (2017).
    (doi: 10.1021/acs.jctc.7b00174)


                         Additional Contributions by
    P. Kraus, H. Kruse, M. H. Lechner, M. C. Schieber, and R. A. Shaw

    -----------------------------------------------------------------------


    Psi4 started on: Saturday, 05 November 2022 10:19AM

    Process ID: 8273
    Host:       node5
    PSIDATADIR: /home/qc/psi4conda/share/psi4
    Memory:     500.0 MiB
    Threads:    4
    
  ==> Input File <==

--------------------------------------------------------------------------
#h2o SPECIAL eom-cc3
memory 31950 mb

molecule h2o{
1 2
H        0.0000000000       -1.5370491397       -0.9640707766
O        0.0000000000       -0.0000000000        0.1118773631
H        0.0000000000        1.5370491397       -0.9640707766

units bohr
}
 
set globals {
 reference rohf
 basis aug-cc-pvtz-dk
 freeze_core true
 cachelevel=0
 relativistic x2c
 maxiter=500
 dertype none
 ints_tolerance 20
 roots_per_irrep = [0,0,1,0]
}

set scf d_convergence 12
set ccenergy r_convergence 12
set cceom r_convergence 8

energy('eom-cc3')--------------------------------------------------------------------------

  Memory set to  29.756 GiB by Python driver.

*** tstart() called on node5
*** at Sat Nov  5 10:19:28 2022

   => Loading Basis Set <=

    Name: AUG-CC-PVTZ-DK
    Role: ORBITAL
    Keyword: BASIS
    atoms 1, 3 entry H          line    45 file /home/qc/psi4conda/share/psi4/basis/aug-cc-pvtz-dk.gbs 
    atoms 2    entry O          line   324 file /home/qc/psi4conda/share/psi4/basis/aug-cc-pvtz-dk.gbs 


         ---------------------------------------------------------
                                   SCF
            by Justin Turney, Rob Parrish, Andy Simmonett
                             and Daniel Smith
                             ROHF Reference
                        4 Threads,  30469 MiB Core
         ---------------------------------------------------------

  ==> Geometry <==

    Molecular point group: c2v
    Full point group: C2v

    Geometry (in Bohr), charge = 1, multiplicity = 2:

       Center              X                  Y                   Z               Mass       
    ------------   -----------------  -----------------  -----------------  -----------------
         H            0.000000000000    -1.537049139700    -0.955533539998     1.007825032070
         O           -0.000000000000     0.000000000000     0.120414599702    15.994914619560
         H           -0.000000000000     1.537049139700    -0.955533539998     1.007825032070

  Running in c2v symmetry.

  Rotational constants: A =     29.04971  B =     12.64164  C =      8.80845 [cm^-1]
  Rotational constants: A = 870888.43319  B = 378986.98234  C = 264070.62268 [MHz]
  Nuclear repulsion =    8.853103860949847

  Charge       = 1
  Multiplicity = 2
  Electrons    = 9
  Nalpha       = 5
  Nbeta        = 4

  ==> Algorithm <==

  SCF Algorithm Type is PK.
  DIIS enabled.
  MOM disabled.
  Fractional occupation disabled.
  Guess Type is GWH.
  Energy threshold   = 1.00e-08
  Density threshold  = 1.00e-12
  Integral threshold = 1.00e-20

  ==> Primary Basis <==

  Basis Set: AUG-CC-PVTZ-DK
    Blend: AUG-CC-PVTZ-DK
    Number of shells: 32
    Number of basis function: 92
    Number of Cartesian functions: 105
    Spherical Harmonics?: true
    Max angular momentum: 3

   => Loading Basis Set <=

    Name: (AUG-CC-PVTZ-DK AUX)
    Role: DECON
    Keyword: BASIS_RELATIVISTIC
    atoms 1, 3 entry H          line    45 file /home/qc/psi4conda/share/psi4/basis/aug-cc-pvtz-dk.gbs func decontract
    atoms 2    entry O          line   324 file /home/qc/psi4conda/share/psi4/basis/aug-cc-pvtz-dk.gbs func decontract

  ==> Pre-Iterations <==

   -------------------------------------------------------
    Irrep   Nso     Nmo     Nalpha   Nbeta   Ndocc  Nsocc
   -------------------------------------------------------
     A1        35      35       0       0       0       0
     A2        12      12       0       0       0       0
     B1        18      18       0       0       0       0
     B2        27      27       0       0       0       0
   -------------------------------------------------------
    Total      92      92       5       4       4       1
   -------------------------------------------------------

 OEINTS: Using relativistic (X2C) overlap, kinetic, and potential integrals.
         ------------------------------------------------------------
         Spin-Free X2C Integrals at the One-Electron Level (SFX2C-1e)
                 by Prakash Verma and Francesco A. Evangelista
         ------------------------------------------------------------

  ==> X2C Options <==

    Computational Basis: AUG-CC-PVTZ-DK
    X2C Basis: (AUG-CC-PVTZ-DK AUX)
    The X2C Hamiltonian will be computed in the X2C Basis

    Comparing only 35 out of 45 elements of H_Dirac

    Comparing only 18 out of 20 elements of H_Dirac

    Comparing only 27 out of 31 elements of H_Dirac

    The 1-norm of |H_X2C - H_Dirac| is: 6.910094278087

    WARNING: The X2C and Dirac Hamiltonians have substatially different eigenvalues!
             This is probably caused by the recontraction of the basis set.

  ==> Integral Setup <==

  Using in-core PK algorithm.
   Calculation information:
      Number of atoms:                   3
      Number of AO shells:              32
      Number of primitives:             52
      Number of atomic orbitals:       105
      Number of basis functions:        92

      Integral cutoff                 1.00e-20
      Number of threads:                 4

  Performing in-core PK
  Using 18305562 doubles for integral storage.
  We computed 171364 shell quartets total.
  Whereas there are 139656 unique shell quartets.
    22.70 percent of shell quartets recomputed by reordering.

  ==> DiskJK: Disk-Based J/K Matrices <==

    J tasked:                  Yes
    K tasked:                  Yes
    wK tasked:                  No
    Memory (MB):             22852
    Schwarz Cutoff:          1E-20

    OpenMP threads:              4

  Minimum eigenvalue in the overlap matrix is 4.0259776429E-04.
  Using Symmetric Orthogonalization.

  SCF Guess: Generalized Wolfsberg-Helmholtz.

  ==> Iterations <==

                        Total Energy        Delta E     RMS |[F,P]|

   @ROHF iter   1:   -69.31845688072039   -6.93185e+01   1.23690e-01 
   @ROHF iter   2:   -75.57567581895862   -6.25722e+00   1.04909e-02 DIIS
   @ROHF iter   3:   -75.69150697154788   -1.15831e-01   3.49210e-03 DIIS
   @ROHF iter   4:   -75.70315898650450   -1.16520e-02   1.21884e-03 DIIS
   @ROHF iter   5:   -75.70514797472953   -1.98899e-03   4.15648e-04 DIIS
   @ROHF iter   6:   -75.70532029665964   -1.72322e-04   6.81818e-05 DIIS
   @ROHF iter   7:   -75.70532900929635   -8.71264e-06   1.29559e-05 DIIS
   @ROHF iter   8:   -75.70532924361281   -2.34316e-07   1.62706e-06 DIIS
   @ROHF iter   9:   -75.70532924783825   -4.22544e-09   2.68655e-07 DIIS
   @ROHF iter  10:   -75.70532924792209   -8.38440e-11   4.93661e-08 DIIS
   @ROHF iter  11:   -75.70532924792512   -3.02691e-12   1.02066e-08 DIIS
   @ROHF iter  12:   -75.70532924792536   -2.41585e-13   1.56169e-09 DIIS
   @ROHF iter  13:   -75.70532924792526    9.94760e-14   1.99005e-10 DIIS
   @ROHF iter  14:   -75.70532924792529   -2.84217e-14   3.78677e-11 DIIS
   @ROHF iter  15:   -75.70532924792526    2.84217e-14   6.74142e-12 DIIS
   @ROHF iter  16:   -75.70532924792515    1.13687e-13   1.08491e-12 DIIS
   @ROHF iter  17:   -75.70532924792518   -2.84217e-14   1.72795e-13 DIIS

  ==> Post-Iterations <==

    Orbital Energies [Eh]
    ---------------------

    Doubly Occupied:                                                      

       1A1   -21.118499     2A1    -1.804961     1B2    -1.181310  
       3A1    -1.049483  

    Singly Occupied:                                                      

       1B1    -0.687698  

    Virtual:                                                              

       4A1    -0.180323     2B2    -0.116082     5A1    -0.060816  
       2B1    -0.057906     6A1    -0.041728     3B2    -0.025899  
       4B2     0.010440     7A1     0.017849     1A2     0.036402  
       3B1     0.070581     8A1     0.073194     5B2     0.162912  
       9A1     0.179149     6B2     0.196592     7B2     0.322790  
      10A1     0.347071    11A1     0.408768     4B1     0.421805  
       2A2     0.422179    12A1     0.518066     5B1     0.554418  
      13A1     0.581383     8B2     0.598395     6B1     0.607384  
       3A2     0.623438     9B2     0.661004    14A1     0.669456  
      15A1     0.729208    10B2     0.743851     7B1     0.749599  
      11B2     0.830277    16A1     0.862499     4A2     0.872213  
      12B2     0.962071     5A2     1.166941     8B1     1.228546  
      17A1     1.246430    13B2     1.409886    18A1     1.437642  
      14B2     1.591178    19A1     1.689554     9B1     1.831677  
       6A2     1.900299    20A1     1.943607    21A1     1.979048  
      10B1     2.002454    15B2     2.050732    22A1     2.087275  
      11B1     2.305780    16B2     2.318624    23A1     2.320382  
       7A2     2.453772    17B2     2.495313    18B2     3.171768  
      24A1     3.318123     8A2     3.577697    12B1     3.591192  
      19B2     3.778012    25A1     3.785099    13B1     3.909913  
      14B1     3.966781     9A2     3.972707    20B2     4.050266  
      26A1     4.079814    27A1     4.209912    21B2     4.284728  
      22B2     4.622027    10A2     4.653322    28A1     4.754071  
      23B2     4.850319    15B1     4.935985    29A1     5.243765  
      30A1     5.600496    24B2     6.064089    16B1     6.202772  
      31A1     6.293392    17B1     6.612068    18B1     6.708086  
      11A2     6.723841    32A1     6.768333    12A2     6.850586  
      25B2     6.863923    33A1     6.986699    26B2     7.312818  
      34A1     7.423136    27B2     8.112992    35A1    14.314285  

    Final Occupation by Irrep:
             A1    A2    B1    B2 
    DOCC [     3,    0,    0,    1 ]
    SOCC [     0,    0,    1,    0 ]

  Energy converged.

  @ROHF Final Energy:   -75.70532924792518

   => Energetics <=

    Nuclear Repulsion Energy =              8.8531038609498474
    One-Electron Energy =                -117.6987632680543925
    Two-Electron Energy =                  33.1403301591793706
    Total Energy =                        -75.7053292479251780



Properties will be evaluated at   0.000000,   0.000000,   0.000000 [a0]

Properties computed using the SCF density matrix

  Nuclear Dipole Moment: [e a0]
     X:     0.0000      Y:     0.0000      Z:    -0.9478

  Electronic Dipole Moment: [e a0]
     X:     0.0000      Y:     0.0000      Z:    -0.0051

  Dipole Moment: [e a0]
     X:     0.0000      Y:     0.0000      Z:    -0.9529     Total:     0.9529

  Dipole Moment: [D]
     X:     0.0000      Y:     0.0000      Z:    -2.4219     Total:     2.4219


*** tstop() called on node5 at Sat Nov  5 10:19:30 2022
Module time:
	user time   =       5.22 seconds =       0.09 minutes
	system time =       0.18 seconds =       0.00 minutes
	total time  =          2 seconds =       0.03 minutes
Total time:
	user time   =       5.22 seconds =       0.09 minutes
	system time =       0.18 seconds =       0.00 minutes
	total time  =          2 seconds =       0.03 minutes
   => Loading Basis Set <=

    Name: (AUG-CC-PVTZ-DK AUX)
    Role: DECON
    Keyword: BASIS_RELATIVISTIC
    atoms 1, 3 entry H          line    45 file /home/qc/psi4conda/share/psi4/basis/aug-cc-pvtz-dk.gbs func decontract
    atoms 2    entry O          line   324 file /home/qc/psi4conda/share/psi4/basis/aug-cc-pvtz-dk.gbs func decontract

 MINTS: Wrapper to libmints.
   by Justin Turney

   Calculation information:
      Number of threads:                 4
      Number of atoms:                   3
      Number of AO shells:              32
      Number of SO shells:              23
      Number of primitives:             52
      Number of atomic orbitals:       105
      Number of basis functions:        92

      Number of irreps:                  4
      Integral cutoff                 1.00e-20
      Number of functions per irrep: [  35   12   18   27 ]

 OEINTS: Using relativistic (X2C) overlap, kinetic, and potential integrals.
         ------------------------------------------------------------
         Spin-Free X2C Integrals at the One-Electron Level (SFX2C-1e)
                 by Prakash Verma and Francesco A. Evangelista
         ------------------------------------------------------------

  ==> X2C Options <==

    Computational Basis: AUG-CC-PVTZ-DK
    X2C Basis: (AUG-CC-PVTZ-DK AUX)
    The X2C Hamiltonian will be computed in the X2C Basis

    Comparing only 35 out of 45 elements of H_Dirac

    Comparing only 18 out of 20 elements of H_Dirac

    Comparing only 27 out of 31 elements of H_Dirac

    The 1-norm of |H_X2C - H_Dirac| is: 6.910094278087

    WARNING: The X2C and Dirac Hamiltonians have substatially different eigenvalues!
             This is probably caused by the recontraction of the basis set.

 OEINTS: Overlap, kinetic, potential, dipole, and quadrupole integrals
         stored in file 35.

      Computing two-electron integrals...done
      Computed 2241437 non-zero two-electron integrals.
        Stored in file 33.


*** tstart() called on node5
*** at Sat Nov  5 10:19:31 2022


	Wfn Parameters:
	--------------------
	Wavefunction         = CC3
	Number of irreps     = 4
	Number of MOs        = 92
	Number of active MOs = 91
	AO-Basis             = NONE
	Semicanonical        = true
	Reference            = ROHF changed to UHF for semicanonical orbitals
	Print Level          = 1

	IRREP	# MOs	# FZDC	# DOCC	# SOCC	# VIRT	# FZVR
	-----	-----	------	------	------	------	------
	 A1	   35	    1	    2	    0	    32	    0
	 A2	   12	    0	    0	    0	    12	    0
	 B1	   18	    0	    0	    1	    17	    0
	 B2	   27	    0	    1	    0	    26	    0
	Transforming integrals...
	IWL integrals will be deleted.
	(OO|OO)...
	Presorting SO-basis two-electron integrals.
	Sorting File: SO Ints (nn|nn) nbuckets = 1
	Transforming the one-electron integrals and constructing Fock matrices
	Starting AA/AB first half-transformation.
	Sorting AA/AB half-transformed integrals.
	Starting BB first half-transformation.
	Sorting BB half-transformed integrals.
	First half integral transformation complete.
	Starting AA second half-transformation.
	Starting AB second half-transformation.
	Starting BB second half-transformation.
	Two-electron integral transformation complete.
	(OO|OV)...
	Starting AA second half-transformation.
	Starting AB second half-transformation.
	Starting BB second half-transformation.
	Two-electron integral transformation complete.
	(OO|VV)...
	Starting AA second half-transformation.
	Starting AB second half-transformation.
	Starting BB second half-transformation.
	Two-electron integral transformation complete.
	(OV|OO)...
	Starting AA/AB first half-transformation.
	Sorting AA/AB half-transformed integrals.
	Starting BB first half-transformation.
	Sorting BB half-transformed integrals.
	First half integral transformation complete.
	Starting AA second half-transformation.
	Starting AB second half-transformation.
	Starting BB second half-transformation.
	Two-electron integral transformation complete.
	(OV|OV)...
	Starting AA second half-transformation.
	Starting AB second half-transformation.
	Starting BB second half-transformation.
	Two-electron integral transformation complete.
	(OV|VV)...
	Starting AA second half-transformation.
	Starting AB second half-transformation.
	Starting BB second half-transformation.
	Two-electron integral transformation complete.
	(VV|OO)...
	Starting AA/AB first half-transformation.
	Sorting AA/AB half-transformed integrals.
	Starting BB first half-transformation.
	Sorting BB half-transformed integrals.
	First half integral transformation complete.
	Starting AA second half-transformation.
	Starting AB second half-transformation.
	Starting BB second half-transformation.
	Two-electron integral transformation complete.
	(VV|OV)...
	Starting AA second half-transformation.
	Starting AB second half-transformation.
	Starting BB second half-transformation.
	Two-electron integral transformation complete.
	(VV|VV)...
	Starting AA second half-transformation.
	Starting AB second half-transformation.
	Starting BB second half-transformation.
	Two-electron integral transformation complete.
	Frozen core energy     =    -61.28300802833428

	Size of irrep 0 of <AB|CD> integrals:      1.047 (MW) /      8.372 (MB)
	Size of irrep 1 of <AB|CD> integrals:      0.682 (MW) /      5.458 (MB)
	Size of irrep 2 of <AB|CD> integrals:      0.733 (MW) /      5.862 (MB)
	Size of irrep 3 of <AB|CD> integrals:      1.073 (MW) /      8.586 (MB)
	Total:                                     3.535 (MW) /     28.279 (MB)

	Size of irrep 0 of <ab|cd> integrals:      1.082 (MW) /      8.653 (MB)
	Size of irrep 1 of <ab|cd> integrals:      0.726 (MW) /      5.807 (MB)
	Size of irrep 2 of <ab|cd> integrals:      0.789 (MW) /      6.308 (MB)
	Size of irrep 3 of <ab|cd> integrals:      1.098 (MW) /      8.786 (MB)
	Total:                                     3.694 (MW) /     29.555 (MB)

	Size of irrep 0 of <Ab|Cd> integrals:      4.622 (MW) /     36.980 (MB)
	Size of irrep 1 of <Ab|Cd> integrals:      2.816 (MW) /     22.525 (MB)
	Size of irrep 2 of <Ab|Cd> integrals:      3.042 (MW) /     24.332 (MB)
	Size of irrep 3 of <Ab|Cd> integrals:      4.343 (MW) /     34.744 (MB)
	Total:                                    14.823 (MW) /    118.582 (MB)

	Size of irrep 0 of <IA|BC> integrals:      0.228 (MW) /      1.826 (MB)
	Size of irrep 1 of <IA|BC> integrals:      0.111 (MW) /      0.885 (MB)
	Size of irrep 2 of <IA|BC> integrals:      0.134 (MW) /      1.068 (MB)
	Size of irrep 3 of <IA|BC> integrals:      0.199 (MW) /      1.591 (MB)
	Total:                                     0.671 (MW) /      5.371 (MB)

	Size of irrep 0 of <ia|bc> integrals:      0.195 (MW) /      1.561 (MB)
	Size of irrep 1 of <ia|bc> integrals:      0.072 (MW) /      0.573 (MB)
	Size of irrep 2 of <ia|bc> integrals:      0.085 (MW) /      0.682 (MB)
	Size of irrep 3 of <ia|bc> integrals:      0.176 (MW) /      1.409 (MB)
	Total:                                     0.528 (MW) /      4.224 (MB)

	Size of irrep 0 of <Ia|Bc> integrals:      0.232 (MW) /      1.858 (MB)
	Size of irrep 1 of <Ia|Bc> integrals:      0.114 (MW) /      0.913 (MB)
	Size of irrep 2 of <Ia|Bc> integrals:      0.140 (MW) /      1.116 (MB)
	Size of irrep 3 of <Ia|Bc> integrals:      0.200 (MW) /      1.601 (MB)
	Total:                                     0.686 (MW) /      5.487 (MB)

	Size of irrep 0 of <iA|bC> integrals:      0.194 (MW) /      1.548 (MB)
	Size of irrep 1 of <iA|bC> integrals:      0.069 (MW) /      0.550 (MB)
	Size of irrep 2 of <iA|bC> integrals:      0.080 (MW) /      0.642 (MB)
	Size of irrep 3 of <iA|bC> integrals:      0.175 (MW) /      1.400 (MB)
	Total:                                     0.518 (MW) /      4.141 (MB)

	Size of irrep 0 of tIjAb amplitudes:       0.011 (MW) /      0.086 (MB)
	Size of irrep 1 of tIjAb amplitudes:       0.002 (MW) /      0.013 (MB)
	Size of irrep 2 of tIjAb amplitudes:       0.003 (MW) /      0.028 (MB)
	Size of irrep 3 of tIjAb amplitudes:       0.008 (MW) /      0.067 (MB)
	Total:                                     0.024 (MW) /      0.194 (MB)

	Nuclear Rep. energy          =      8.85310386094985
	SCF energy                   =    -75.70532924792518
	One-electron energy          =    -37.36978092114502
	Two-electron (AA) energy     =      3.70582469535987
	Two-electron (BB) energy     =      1.75592637575679
	Two-electron (AB) energy     =      8.63260476948744
	Two-electron energy          =     14.09435584060410
	Reference energy             =    -75.70532924792536

*** tstop() called on node5 at Sat Nov  5 10:19:34 2022
Module time:
	user time   =       2.50 seconds =       0.04 minutes
	system time =       1.25 seconds =       0.02 minutes
	total time  =          3 seconds =       0.05 minutes
Total time:
	user time   =       9.42 seconds =       0.16 minutes
	system time =       1.51 seconds =       0.03 minutes
	total time  =          6 seconds =       0.10 minutes

*** tstart() called on node5
*** at Sat Nov  5 10:19:34 2022

            **************************
            *                        *
            *        CCENERGY        *
            *                        *
            **************************

    Nuclear Rep. energy (wfn)     =    8.853103860949847
    SCF energy          (wfn)     =  -75.705329247925178
    Reference energy    (file100) =  -75.705329247925363

    Input parameters:
    -----------------
    Wave function   =     CC3
    Reference wfn   =     ROHF changed to UHF for Semicanonical Orbitals
    Brueckner       =     No
    Memory (Mbytes) =     31950.0
    Maxiter         =    500
    R_Convergence   =     1.0e-12
    E_Convergence   =     1.0e-06
    Restart         =     Yes
    DIIS            =     Yes
    AO Basis        =     NONE
    ABCD            =     NEW
    Cache Level     =     0
    Cache Type      =     LRU
    Print Level     =     1
    Num. of threads =     4
    # Amps to Print =     10
    Print MP2 Amps? =     No
    Analyze T2 Amps =     No
    Print Pair Ener =     No
    Local CC        =     No
    T3 Ws incore    =     No
    SCS-MP2         =     False
    SCSN-MP2        =     False
    SCS-CCSD        =     False

MP2 correlation energy -0.2066170922905172
                Solving CC Amplitude Equations
                ------------------------------
  Iter             Energy              RMS        T1Diag      D1Diag    New D1Diag    D2Diag
  ----     ---------------------    ---------   ----------  ----------  ----------   --------
     0        -0.206675139471320    0.000e+00    0.013469    0.000000    0.000000    0.000000
     1        -0.221646376352371    3.297e-02    0.016549    0.000000    0.000000    0.000000
     2        -0.226589040486959    1.192e-02    0.018226    0.000000    0.000000    0.000000
     3        -0.226874647955516    4.004e-03    0.018760    0.000000    0.000000    0.000000
     4        -0.226885315250314    1.727e-03    0.018819    0.000000    0.000000    0.000000
     5        -0.226919563370759    7.101e-04    0.018789    0.000000    0.000000    0.000000
     6        -0.226922921882050    2.322e-04    0.018757    0.000000    0.000000    0.000000
     7        -0.226924993554450    8.862e-05    0.018747    0.000000    0.000000    0.000000
     8        -0.226924823861930    3.120e-05    0.018746    0.000000    0.000000    0.000000
     9        -0.226924791250848    1.046e-05    0.018746    0.000000    0.000000    0.000000
    10        -0.226924902148192    3.813e-06    0.018746    0.000000    0.000000    0.000000
    11        -0.226924841927821    1.272e-06    0.018746    0.000000    0.000000    0.000000
    12        -0.226924825422876    3.799e-07    0.018746    0.000000    0.000000    0.000000
    13        -0.226924815840529    1.040e-07    0.018746    0.000000    0.000000    0.000000
    14        -0.226924815447464    3.127e-08    0.018746    0.000000    0.000000    0.000000
    15        -0.226924815381982    1.196e-08    0.018746    0.000000    0.000000    0.000000
    16        -0.226924815301924    5.381e-09    0.018746    0.000000    0.000000    0.000000
    17        -0.226924815205950    2.396e-09    0.018746    0.000000    0.000000    0.000000
    18        -0.226924815148927    9.823e-10    0.018746    0.000000    0.000000    0.000000
    19        -0.226924815140435    3.955e-10    0.018746    0.000000    0.000000    0.000000
    20        -0.226924815141499    1.391e-10    0.018746    0.000000    0.000000    0.000000
    21        -0.226924815140789    4.801e-11    0.018746    0.000000    0.000000    0.000000
    22        -0.226924815140847    1.682e-11    0.018746    0.000000    0.000000    0.000000
    23        -0.226924815140820    4.983e-12    0.018746    0.000000    0.000000    0.000000
    24        -0.226924815140851    1.624e-12    0.018746    0.000000    0.000000    0.000000
    25        -0.226924815140857    4.708e-13    0.018746    0.000000    0.000000    0.000000

    Iterations converged.


    Largest TIA Amplitudes:
              0  14         0.0095085405
              0   0         0.0086733364
              0  15         0.0086694555
              0   6        -0.0085651251
              0   5        -0.0077898547
              0  17        -0.0076464192
              0   7        -0.0075815957
              0   2        -0.0073640688
              2  44        -0.0061106589
              0   4         0.0057268477

    Largest Tia Amplitudes:
              1   1         0.0106603061
              2  63         0.0102814871
              0   0        -0.0098131688
              0   2         0.0096822845
              2  62         0.0089282182
              2  66        -0.0085319895
              0  17         0.0082497716
              0   7         0.0080628246
              0   6        -0.0078820771
              1   4         0.0078568089

    Largest TIJAB Amplitudes:
      2   1  47   9         0.0085096739
      3   2  65  47        -0.0080890227
      3   2  33   6        -0.0079890499
      2   1  51  17         0.0075158658
      3   1  65   9         0.0071403826
      3   2  62  47        -0.0071066250
      2   1  46   7         0.0069635112
      3   2  61  47        -0.0067991536
      2   1  44   9         0.0066582247
      2   1  48   9         0.0066478545

    Largest Tijab Amplitudes:
      1   0  47  44        -0.0081337899
      2   0  44  33         0.0077112509
      1   0  52  44         0.0074309027
      2   1  66   9         0.0072147420
      2   1  63   6        -0.0069842305
      2   1  66   6         0.0067511085
      2   1  67   6         0.0064625269
      2   1  62   9        -0.0062728275
      2   1  66   1         0.0061549606
      2   0  44  36         0.0061164014

    Largest TIjAb Amplitudes:
      3   2  65  66        -0.0190757196
      1   1   9   9        -0.0179774762
      3   2  62  66        -0.0172164258
      3   2  65  63         0.0170938876
      2   0   0  44        -0.0162955958
      2   0   6  44         0.0161682435
      3   2  62  63         0.0158564445
      2   0  14  44        -0.0151818983
      1   0  51  44         0.0149030511
      3   2  61  66        -0.0148855149

    SCF energy       (wfn)                    =  -75.705329247925178
    Reference energy (file100)                =  -75.705329247925363

    Opposite-spin MP2 correlation energy      =   -0.157732370919864
    Same-spin MP2 correlation energy          =   -0.045284058520430
    MP2 correlation energy                    =   -0.206617092290517
      * MP2 total energy                      =  -75.911946340215877
    CC3 correlation energy                    =   -0.226924815140857
      * CC3 total energy                      =  -75.932254063066225


*** tstop() called on node5 at Sat Nov  5 10:22:08 2022
Module time:
	user time   =     564.32 seconds =       9.41 minutes
	system time =      46.52 seconds =       0.78 minutes
	total time  =        154 seconds =       2.57 minutes
Total time:
	user time   =     573.74 seconds =       9.56 minutes
	system time =      48.04 seconds =       0.80 minutes
	total time  =        160 seconds =       2.67 minutes

*** tstart() called on node5
*** at Sat Nov  5 10:22:08 2022


			**************************
			*                        *
			*         CCHBAR         *
			*                        *
			**************************

Dots of (HeT1)c in names "CC3 Wxxx" in CC3_HET1 
Wamef terms
	<WAMEF|WAMEF> =   13.3040625541
	<Wamef|Wamef> =   10.8496953998
	<WAmEf|WAmEf> =    9.3161063167
	<WaMeF|WaMeF> =   12.6646123440
Wmnie terms
	<WMNIE (M>N,IE)|WMNIE> =    0.7442115632
	<Wmnie (m>n,ie)|Wmnie> =    0.3280806524
	<WMnIe (Mn,Ie)|WMnIe> =    0.7255982748
	<WmNiE (mN,iE)|WmNiE> =    0.6149759736
	<WMNIE(M>N,EI)|WMNIE(M>N,EI)> =    0.7442115632
	<Wmnie(m>n,ei)|Wmnie(m>n,ei)> =    0.3280806524
	<WMnIe(Mn,eI)|WMnIe(Mn,eI)> =    0.7255982748
	<WmNiE(mN,Ei)|WmNiE(mN,Ei)> =    0.6149759736
Doing Wmnij terms.
	<WMNIJ (M>N,I>J)|WMNIJ> =    9.2522539150
	<Wmnij (m>n,i>j)|Wmnij> =    4.0611478661
	<WMnIj (Mn,Ij)|WMnIj> =    6.4123025761
Doing Wmbij terms.
	<WMBIJ (MB,I>J)|WMBIJ> =    0.7494877330
	<WMBIJ (I>J,MB)|WMBIJ> =    0.7494877330
	<Wmbij (mb,i>j)|Wmbij> =    0.3338418729
	<Wmbij (i>j,mb)|Wmbij> =    0.3338418729
	<WMbIj (Mb,Ij)|WMbIj> =    0.7289982896
	<WMbIj (Ij,Mb)|WMbIj> =    0.7289982896
	<WmBiJ (mB,iJ)|WmBiJ> =    0.6182944016
	<WmBiJ (iJ,mB)|WmBiJ> =    0.6182944016
Doing Wmbej terms.
	<WMBEJ (all ME,JB)|WMBEJ> =   82.0859119603
	<Wmbej|Wmbej> =   62.1571458895
	<WMbEj|WMbEj> =    1.0316421540
	<WmBeJ|WmBeJ> =    1.0410368339
	<WMbeJ|WMbeJ> =   95.1377752528
	<WmBEj|WmBEj> =   68.1650303552
Doing Wabei terms.
	<WABEI (IE,B>A) |WABEI> =   13.3568049635
	<Wabei (ie,b>a)|Wabei> =   10.9463667757
	<WAbEi (iE,bA)|WAbEi> =    9.3891746820
	<WAbEi (iE,Ba)|WAbEi> =   12.6988191580

*** tstop() called on node5 at Sat Nov  5 10:22:10 2022
Module time:
	user time   =       3.98 seconds =       0.07 minutes
	system time =       0.72 seconds =       0.01 minutes
	total time  =          2 seconds =       0.03 minutes
Total time:
	user time   =     577.73 seconds =       9.63 minutes
	system time =      48.76 seconds =       0.81 minutes
	total time  =        162 seconds =       2.70 minutes

*** tstart() called on node5
*** at Sat Nov  5 10:22:10 2022


	**********************************************************
	*  CCEOM: An Equation of Motion Coupled Cluster Program  *
	**********************************************************

	Nuclear Rep. energy (wfn)     =    8.853103860949847
	SCF energy          (wfn)     =  -75.705329247925178
	Reference energy    (file100) =  -75.705329247925363
	CC3 energy          (file100) =   -0.226924815140857

	Input parameters:
	-----------------
	Reference wfn   = ROHF changed to UHF for Semicanonical Orbitals
	Reference EOM wfn=     UHF
	Memory (Mbytes) =  31950.0
	ABCD            =     NEW
	Cache Level     =    0
	Cache Type      =     LRU
	T3 Ws incore  =      No
	Num. of threads =     4
	Local CC        =     No


	CCEOM parameters:
	-----------------
	States sought per irrep     = A1 0, A2 0, B1 1, B2 0,
	Max. number of iterations   =   500
	Vectors stored per root     =    12
	Print HbarSS iterations?    =     0
	Excitation range for HBarSS =     2
	Eigenvalue tolerance        = 1.0e-06
	Eigenvalue toleranceSS      = 1.0e-06
	Residual vector tolerance   = 1.0e-08
	Residual vector toleranceSS = 1.0e-06
	Complex tolerance           = 1.0e-12
	Root for properties         =     1
	Sym of state for properties =     A1
	Guess vectors taken from    = SINGLES
	Restart EOM CC3             = NO
	Collapse with last vector   = YES


Symmetry of ground state: B1
Symmetry of excited state: B1
Symmetry of right eigenvector: A1
Obtaining initial guess from singles-singles block of Hbar...Done.

Iter=1    L=1     Root    EOM Energy     Delta E   Res. Norm    Conv?
                     1   0.5829411937   5.83e-01    5.16e-01      N
Iter=2    L=2     Root    EOM Energy     Delta E   Res. Norm    Conv?
                     1   0.4904544825  -9.25e-02    9.70e-02      N
Iter=3    L=3     Root    EOM Energy     Delta E   Res. Norm    Conv?
                     1   0.4843908128  -6.06e-03    6.23e-02      N
Iter=4    L=4     Root    EOM Energy     Delta E   Res. Norm    Conv?
                     1   0.4812878214  -3.10e-03    4.55e-02      N
Iter=5    L=5     Root    EOM Energy     Delta E   Res. Norm    Conv?
                     1   0.4801001768  -1.19e-03    2.67e-02      N
Iter=6    L=6     Root    EOM Energy     Delta E   Res. Norm    Conv?
                     1   0.4796757014  -4.24e-04    1.35e-02      N
Iter=7    L=7     Root    EOM Energy     Delta E   Res. Norm    Conv?
                     1   0.4795397957  -1.36e-04    8.63e-03      N
Iter=8    L=8     Root    EOM Energy     Delta E   Res. Norm    Conv?
                     1   0.4794664860  -7.33e-05    6.16e-03      N
Iter=9    L=9     Root    EOM Energy     Delta E   Res. Norm    Conv?
                     1   0.4794310890  -3.54e-05    3.86e-03      N
Iter=10   L=10    Root    EOM Energy     Delta E   Res. Norm    Conv?
                     1   0.4794199724  -1.11e-05    3.07e-03      N
Iter=11   L=11    Root    EOM Energy     Delta E   Res. Norm    Conv?
                     1   0.4794094618  -1.05e-05    2.46e-03      N
Iter=12   L=12    Root    EOM Energy     Delta E   Res. Norm    Conv?
                     1   0.4794054983  -3.96e-06    1.39e-03      N
Iter=13   L=2     Root    EOM Energy     Delta E   Res. Norm    Conv?
                     1   0.4794054983   0.00e+00    1.39e-03      N
Iter=14   L=3     Root    EOM Energy     Delta E   Res. Norm    Conv?
                     1   0.4794047629  -7.35e-07    6.73e-04      N
Iter=15   L=4     Root    EOM Energy     Delta E   Res. Norm    Conv?
                     1   0.4794050038   2.41e-07    3.97e-04      N
Iter=16   L=5     Root    EOM Energy     Delta E   Res. Norm    Conv?
                     1   0.4794042973  -7.06e-07    2.20e-04      N
Iter=17   L=6     Root    EOM Energy     Delta E   Res. Norm    Conv?
                     1   0.4794039072  -3.90e-07    9.31e-05      N
Iter=18   L=7     Root    EOM Energy     Delta E   Res. Norm    Conv?
                     1   0.4794040082   1.01e-07    3.59e-05      N
Iter=19   L=8     Root    EOM Energy     Delta E   Res. Norm    Conv?
                     1   0.4794039706  -3.76e-08    1.45e-05      N
Iter=20   L=9     Root    EOM Energy     Delta E   Res. Norm    Conv?
                     1   0.4794039656  -4.99e-09    6.63e-06      N
Iter=21   L=10    Root    EOM Energy     Delta E   Res. Norm    Conv?
                     1   0.4794039645  -1.11e-09    2.71e-06      N
Iter=22   L=11    Root    EOM Energy     Delta E   Res. Norm    Conv?
                     1   0.4794039671   2.56e-09    9.99e-07      N
Iter=23   L=12    Root    EOM Energy     Delta E   Res. Norm    Conv?
                     1   0.4794039709   3.79e-09    4.34e-07      N
Iter=24   L=2     Root    EOM Energy     Delta E   Res. Norm    Conv?
                     1   0.4794039709   5.04e-13    4.34e-07      N
Iter=25   L=3     Root    EOM Energy     Delta E   Res. Norm    Conv?
                     1   0.4794039714   5.56e-10    2.83e-07      N
Iter=26   L=4     Root    EOM Energy     Delta E   Res. Norm    Conv?
                     1   0.4794039716   2.28e-10    1.99e-07      N
Iter=27   L=5     Root    EOM Energy     Delta E   Res. Norm    Conv?
                     1   0.4794039723   6.39e-10    1.34e-07      N
Iter=28   L=6     Root    EOM Energy     Delta E   Res. Norm    Conv?
                     1   0.4794039725   2.32e-10    8.81e-08      N
Iter=29   L=7     Root    EOM Energy     Delta E   Res. Norm    Conv?
                     1   0.4794039727   2.13e-10    5.80e-08      N
Iter=30   L=8     Root    EOM Energy     Delta E   Res. Norm    Conv?
                     1   0.4794039727   1.50e-11    3.96e-08      N
Iter=31   L=9     Root    EOM Energy     Delta E   Res. Norm    Conv?
                     1   0.4794039727  -2.35e-11    2.45e-08      N
Iter=32   L=10    Root    EOM Energy     Delta E   Res. Norm    Conv?
                     1   0.4794039727   2.12e-12    1.50e-08      N
Iter=33   L=11    Root    EOM Energy     Delta E   Res. Norm    Conv?
                     1   0.4794039727  -3.12e-11    9.74e-09      Y
Completed EOM_CCSD
Collapsing to only 1 vector(s).
Copying root 1 to CC3_MISC file.
Setting initial CC3 eigenvalue to    0.4794039727
Iter=1    L=1     Root    EOM Energy     Delta E   Res. Norm    Conv?
                     1   0.4741832762  -5.22e-03    4.35e-02      N
Iter=2    L=2     Root    EOM Energy     Delta E   Res. Norm    Conv?
                     1   0.4726398749  -1.54e-03    2.69e-02      N
Iter=3    L=3     Root    EOM Energy     Delta E   Res. Norm    Conv?
                     1   0.4711990051  -1.44e-03    4.25e-02      N
Iter=4    L=4     Root    EOM Energy     Delta E   Res. Norm    Conv?
                     1   0.4693877170  -1.81e-03    2.50e-02      N
Iter=5    L=5     Root    EOM Energy     Delta E   Res. Norm    Conv?
                     1   0.4689939609  -3.94e-04    1.31e-02      N
Iter=6    L=6     Root    EOM Energy     Delta E   Res. Norm    Conv?
                     1   0.4688570585  -1.37e-04    1.28e-02      N
Iter=7    L=7     Root    EOM Energy     Delta E   Res. Norm    Conv?
                     1   0.4686997478  -1.57e-04    9.59e-03      N
Iter=8    L=8     Root    EOM Energy     Delta E   Res. Norm    Conv?
                     1   0.4686144607  -8.53e-05    5.41e-03      N
Iter=9    L=9     Root    EOM Energy     Delta E   Res. Norm    Conv?
                     1   0.4686084640  -6.00e-06    2.43e-03      N
Iter=10   L=10    Root    EOM Energy     Delta E   Res. Norm    Conv?
                     1   0.4686073262  -1.14e-06    1.24e-03      N
Collapsing to 2 vector(s).
Change in CC3 energy from last iterated value   -0.0107966465
Iter=11   L=2     Root    EOM Energy     Delta E   Res. Norm    Conv?
                     1   0.4686347144   2.74e-05    1.24e-03      N
Iter=12   L=3     Root    EOM Energy     Delta E   Res. Norm    Conv?
                     1   0.4686323522  -2.36e-06    8.10e-04      N
Iter=13   L=4     Root    EOM Energy     Delta E   Res. Norm    Conv?
                     1   0.4686321110  -2.41e-07    4.86e-04      N
Iter=14   L=5     Root    EOM Energy     Delta E   Res. Norm    Conv?
                     1   0.4686324613   3.50e-07    2.24e-04      N
Iter=15   L=6     Root    EOM Energy     Delta E   Res. Norm    Conv?
                     1   0.4686318504  -6.11e-07    1.19e-04      N
Iter=16   L=7     Root    EOM Energy     Delta E   Res. Norm    Conv?
                     1   0.4686318478  -2.53e-09    7.47e-05      N
Iter=17   L=8     Root    EOM Energy     Delta E   Res. Norm    Conv?
                     1   0.4686321590   3.11e-07    5.61e-05      N
Iter=18   L=9     Root    EOM Energy     Delta E   Res. Norm    Conv?
                     1   0.4686322192   6.02e-08    4.78e-05      N
Iter=19   L=10    Root    EOM Energy     Delta E   Res. Norm    Conv?
                     1   0.4686321931  -2.61e-08    3.38e-05      N
Collapsing to 2 vector(s).
Change in CC3 energy from last iterated value    0.0000248669
Iter=20   L=2     Root    EOM Energy     Delta E   Res. Norm    Conv?
                     1   0.4686320995  -9.36e-08    3.34e-05      N
Iter=21   L=3     Root    EOM Energy     Delta E   Res. Norm    Conv?
                     1   0.4686321340   3.45e-08    1.85e-05      N
Iter=22   L=4     Root    EOM Energy     Delta E   Res. Norm    Conv?
                     1   0.4686321541   2.01e-08    1.01e-05      N
Iter=23   L=5     Root    EOM Energy     Delta E   Res. Norm    Conv?
                     1   0.4686321639   9.80e-09    4.75e-06      N
Iter=24   L=6     Root    EOM Energy     Delta E   Res. Norm    Conv?
                     1   0.4686321648   8.93e-10    2.08e-06      N
Iter=25   L=7     Root    EOM Energy     Delta E   Res. Norm    Conv?
                     1   0.4686321637  -1.12e-09    1.08e-06      N
Iter=26   L=8     Root    EOM Energy     Delta E   Res. Norm    Conv?
                     1   0.4686321622  -1.43e-09    5.68e-07      N
Iter=27   L=9     Root    EOM Energy     Delta E   Res. Norm    Conv?
                     1   0.4686321624   1.29e-10    3.22e-07      N
Iter=28   L=10    Root    EOM Energy     Delta E   Res. Norm    Conv?
                     1   0.4686321626   2.25e-10    2.26e-07      N
Collapsing to 2 vector(s).
Change in CC3 energy from last iterated value   -0.0000000305
Iter=29   L=2     Root    EOM Energy     Delta E   Res. Norm    Conv?
                     1   0.4686321627   1.14e-10    2.26e-07      N
Iter=30   L=3     Root    EOM Energy     Delta E   Res. Norm    Conv?
                     1   0.4686321627  -3.81e-11    1.32e-07      N
Iter=31   L=4     Root    EOM Energy     Delta E   Res. Norm    Conv?
                     1   0.4686321627   3.78e-12    6.52e-08      N
Iter=32   L=5     Root    EOM Energy     Delta E   Res. Norm    Conv?
                     1   0.4686321627   4.99e-12    2.76e-08      N
Iter=33   L=6     Root    EOM Energy     Delta E   Res. Norm    Conv?
                     1   0.4686321627  -2.98e-12    1.27e-08      N
Iter=34   L=7     Root    EOM Energy     Delta E   Res. Norm    Conv?
                     1   0.4686321627   2.06e-12    6.65e-09      Y
Collapsing to only 1 vector(s).
Change in CC3 energy from last iterated value    0.0000000001

Procedure converged for 1 root(s).
Energy written to CC_INFO:Etot  -75.4636219004
States per irrep written to CC_INFO.
<R|R> =   1.0000000000000000
EOM CC3 R0 for root 0 =   0.00381794195

Final Energetic Summary for Converged Roots of Irrep B1
                     Excitation Energy              Total Energy
                (eV)     (cm^-1)     (au)             (au)
EOM State 1     12.752   102852.9   0.4686321627   -75.463621900405

Largest components of excited wave function #1:
 RIA (libdpd indices) : (cscf notation)
         1 >   0      :       3a1 >    4a1 :   -0.4919020560
         1 >   2      :       3a1 >    6a1 :    0.1772046750
         1 >   5      :       3a1 >    9a1 :    0.1363127251
         1 >   1      :       3a1 >    5a1 :   -0.1222879678
         1 >   4      :       3a1 >    8a1 :   -0.0509586047
 Ria (libdpd indices) : (cscf notation)
         1 >   0      :       3a1 >    4a1 :    0.5847392476
         1 >   2      :       3a1 >    6a1 :   -0.2374367366
         1 >   5      :       3a1 >    9a1 :    0.1718838847
         1 >   1      :       3a1 >    5a1 :   -0.1344504375
         1 >   4      :       3a1 >    8a1 :   -0.0584232687
 RIjAb (libdpd indices)     : (cscf notation)
        0   1 >   0   0     :    1b1    3a1 >    4a1    1b1 :   -0.3347799012
        0   1 >   2   0     :    1b1    3a1 >    6a1    1b1 :    0.1207788962
        0   1 >   0   1     :    1b1    3a1 >    4a1    2b1 :   -0.0951115958
        0   1 >   5   0     :    1b1    3a1 >    9a1    1b1 :    0.0933338320
        0   1 >   1   0     :    1b1    3a1 >    5a1    1b1 :   -0.0809943300
 RIJAB (libdpd indices)     : (cscf notation)
        0   1 >   3   0     :    1b1    3a1 >    5b1    4a1 :   -0.0201327670
        0   1 >   0   0     :    1b1    3a1 >    2b1    4a1 :   -0.0193751035
        0   1 >   4   0     :    1b2    3a1 >    6b2    4a1 :   -0.0190896223
        0   1 >   1   0     :    1b2    3a1 >    3b2    4a1 :   -0.0181892312
        0   1 >   0   0     :    1b2    3a1 >    2b2    4a1 :   -0.0164767248
 Rijab (libdpd indices)     : (cscf notation)
        0   1 >   4   0     :    1b2    3a1 >    6b2    4a1 :    0.0242041356
        0   1 >   1   0     :    1b2    3a1 >    3b2    4a1 :   -0.0232826884
        0   1 >   0   0     :    1b2    3a1 >    2b2    4a1 :   -0.0200063939
        0   1 >   8   0     :    1b2    3a1 >   10b2    4a1 :    0.0137575388
        1   0 >   5   0     :    3a1    2a1 >    9a1    4a1 :   -0.0096412191

	Putting into environment energy for root of R irrep 1 and root 1.
	Putting into environment CURRENT ENERGY:              -75.4636219004

	Total # of sigma evaluations: 68

*** tstop() called on node5 at Sat Nov  5 10:31:25 2022
Module time:
	user time   =    2075.62 seconds =      34.59 minutes
	system time =     143.50 seconds =       2.39 minutes
	total time  =        555 seconds =       9.25 minutes
Total time:
	user time   =    2653.36 seconds =      44.22 minutes
	system time =     192.26 seconds =       3.20 minutes
	total time  =        717 seconds =      11.95 minutes

    Psi4 stopped on: Saturday, 05 November 2022 10:31AM
    Psi4 wall time for execution: 0:11:56.61

*** Psi4 exiting successfully. Buy a developer a beer!
