
    -----------------------------------------------------------------------
          Psi4: An Open-Source Ab Initio Electronic Structure Package
                               Psi4 1.2 release

                         Git: Rev {HEAD} 9d4a61c 


    R. M. Parrish, L. A. Burns, D. G. A. Smith, A. C. Simmonett,
    A. E. DePrince III, E. G. Hohenstein, U. Bozkaya, A. Yu. Sokolov,
    R. Di Remigio, R. M. Richard, J. F. Gonthier, A. M. James,
    H. R. McAlexander, A. Kumar, M. Saitow, X. Wang, B. P. Pritchard,
    P. Verma, H. F. Schaefer III, K. Patkowski, R. A. King, E. F. Valeev,
    F. A. Evangelista, J. M. Turney, T. D. Crawford, and C. D. Sherrill,
    J. Chem. Theory Comput. 13(7) pp 3185--3197 (2017).
    (doi: 10.1021/acs.jctc.7b00174)


                         Additional Contributions by
    P. Kraus, H. Kruse, M. H. Lechner, M. C. Schieber, and R. A. Shaw

    -----------------------------------------------------------------------


    Psi4 started on: Saturday, 05 November 2022 10:19AM

    Process ID: 39457
    Host:       node6
    PSIDATADIR: /home/qc/psi4conda/share/psi4
    Memory:     500.0 MiB
    Threads:    4
    
  ==> Input File <==

--------------------------------------------------------------------------
#h2o SPECIAL eom-cc3
memory 31950 mb

molecule h2o{
1 2
H        0.0000000000       -1.5445220252       -0.9737845712
O        0.0000000000        0.0093613418        0.1246816196
H        0.0000000000        1.5351606833       -0.9671612384

units bohr
}
 
set globals {
 reference rohf
 basis aug-cc-pvtz-dk
 freeze_core true
 cachelevel=0
 relativistic x2c
 maxiter=500
 dertype none
 ints_tolerance 20
 roots_per_irrep = [0,1]
}

set scf d_convergence 12
set ccenergy r_convergence 12
set cceom r_convergence 8

energy('eom-cc3')--------------------------------------------------------------------------

  Memory set to  29.756 GiB by Python driver.

*** tstart() called on node6
*** at Sat Nov  5 10:19:16 2022

   => Loading Basis Set <=

    Name: AUG-CC-PVTZ-DK
    Role: ORBITAL
    Keyword: BASIS
    atoms 1, 3 entry H          line    45 file /home/qc/psi4conda/share/psi4/basis/aug-cc-pvtz-dk.gbs 
    atoms 2    entry O          line   324 file /home/qc/psi4conda/share/psi4/basis/aug-cc-pvtz-dk.gbs 


         ---------------------------------------------------------
                                   SCF
            by Justin Turney, Rob Parrish, Andy Simmonett
                             and Daniel Smith
                             ROHF Reference
                        4 Threads,  30469 MiB Core
         ---------------------------------------------------------

  ==> Geometry <==

    Molecular point group: cs
    Full point group: Cs

    Geometry (in Bohr), charge = 1, multiplicity = 2:

       Center              X                  Y                   Z               Mass       
    ------------   -----------------  -----------------  -----------------  -----------------
         H            1.552311856923     0.975902110988     0.000000000000     1.007825032070
         O           -0.001571510077    -0.122564079812     0.000000000000    15.994914619560
         H           -1.527370851577     0.969278778188     0.000000000000     1.007825032070

  Running in cs symmetry.

  Rotational constants: A =     28.04652  B =     12.59348  C =      8.69103 [cm^-1]
  Rotational constants: A = 840813.62241  B = 377543.02332  C = 260550.40465 [MHz]
  Nuclear repulsion =    8.792631287574849

  Charge       = 1
  Multiplicity = 2
  Electrons    = 9
  Nalpha       = 5
  Nbeta        = 4

  ==> Algorithm <==

  SCF Algorithm Type is PK.
  DIIS enabled.
  MOM disabled.
  Fractional occupation disabled.
  Guess Type is GWH.
  Energy threshold   = 1.00e-08
  Density threshold  = 1.00e-12
  Integral threshold = 1.00e-20

  ==> Primary Basis <==

  Basis Set: AUG-CC-PVTZ-DK
    Blend: AUG-CC-PVTZ-DK
    Number of shells: 32
    Number of basis function: 92
    Number of Cartesian functions: 105
    Spherical Harmonics?: true
    Max angular momentum: 3

   => Loading Basis Set <=

    Name: (AUG-CC-PVTZ-DK AUX)
    Role: DECON
    Keyword: BASIS_RELATIVISTIC
    atoms 1, 3 entry H          line    45 file /home/qc/psi4conda/share/psi4/basis/aug-cc-pvtz-dk.gbs func decontract
    atoms 2    entry O          line   324 file /home/qc/psi4conda/share/psi4/basis/aug-cc-pvtz-dk.gbs func decontract

  ==> Pre-Iterations <==

   -------------------------------------------------------
    Irrep   Nso     Nmo     Nalpha   Nbeta   Ndocc  Nsocc
   -------------------------------------------------------
     A'        62      62       0       0       0       0
     A"        30      30       0       0       0       0
   -------------------------------------------------------
    Total      92      92       5       4       4       1
   -------------------------------------------------------

 OEINTS: Using relativistic (X2C) overlap, kinetic, and potential integrals.
         ------------------------------------------------------------
         Spin-Free X2C Integrals at the One-Electron Level (SFX2C-1e)
                 by Prakash Verma and Francesco A. Evangelista
         ------------------------------------------------------------

  ==> X2C Options <==

    Computational Basis: AUG-CC-PVTZ-DK
    X2C Basis: (AUG-CC-PVTZ-DK AUX)
    The X2C Hamiltonian will be computed in the X2C Basis

    Comparing only 62 out of 76 elements of H_Dirac

    Comparing only 30 out of 32 elements of H_Dirac

    The 1-norm of |H_X2C - H_Dirac| is: 6.762464145920

    WARNING: The X2C and Dirac Hamiltonians have substatially different eigenvalues!
             This is probably caused by the recontraction of the basis set.

  ==> Integral Setup <==

  Using in-core PK algorithm.
   Calculation information:
      Number of atoms:                   3
      Number of AO shells:              32
      Number of primitives:             52
      Number of atomic orbitals:       105
      Number of basis functions:        92

      Integral cutoff                 1.00e-20
      Number of threads:                 4

  Performing in-core PK
  Using 18305562 doubles for integral storage.
  We computed 171364 shell quartets total.
  Whereas there are 139656 unique shell quartets.
    22.70 percent of shell quartets recomputed by reordering.

  ==> DiskJK: Disk-Based J/K Matrices <==

    J tasked:                  Yes
    K tasked:                  Yes
    wK tasked:                  No
    Memory (MB):             22852
    Schwarz Cutoff:          1E-20

    OpenMP threads:              4

  Minimum eigenvalue in the overlap matrix is 4.0923515333E-04.
  Using Symmetric Orthogonalization.

  SCF Guess: Generalized Wolfsberg-Helmholtz.

  ==> Iterations <==

                        Total Energy        Delta E     RMS |[F,P]|

    Occupation by irrep:
             Ap   App 
    DOCC [     4,    0 ]
    SOCC [     1,    0 ]

   @ROHF iter   1:   -70.09375707284495   -7.00938e+01   1.11463e-01 
    Occupation by irrep:
             Ap   App 
    DOCC [     4,    0 ]
    SOCC [     0,    1 ]

   @ROHF iter   2:   -72.14780967766166   -2.05405e+00   4.82259e-02 DIIS
   @ROHF iter   3:   -75.07975129836514   -2.93194e+00   3.07552e-02 DIIS
   @ROHF iter   4:   -75.66400335963550   -5.84252e-01   7.41730e-03 DIIS
   @ROHF iter   5:   -75.70460174131105   -4.05984e-02   3.69281e-04 DIIS
   @ROHF iter   6:   -75.70482001154807   -2.18270e-04   9.22437e-05 DIIS
   @ROHF iter   7:   -75.70483138937919   -1.13778e-05   1.75965e-05 DIIS
   @ROHF iter   8:   -75.70483180723082   -4.17852e-07   2.25201e-06 DIIS
   @ROHF iter   9:   -75.70483181672033   -9.48951e-09   6.49957e-07 DIIS
   @ROHF iter  10:   -75.70483181751578   -7.95453e-10   1.59311e-07 DIIS
   @ROHF iter  11:   -75.70483181756634   -5.05622e-11   3.06778e-08 DIIS
   @ROHF iter  12:   -75.70483181756818   -1.83320e-12   9.86368e-09 DIIS
   @ROHF iter  13:   -75.70483181756840   -2.27374e-13   1.47805e-09 DIIS
   @ROHF iter  14:   -75.70483181756846   -5.68434e-14   1.46791e-10 DIIS
   @ROHF iter  15:   -75.70483181756853   -7.10543e-14   2.30157e-11 DIIS
   @ROHF iter  16:   -75.70483181756843    9.94760e-14   4.26263e-12 DIIS
   @ROHF iter  17:   -75.70483181756848   -4.26326e-14   9.32860e-13 DIIS

  ==> Post-Iterations <==

    Orbital Energies [Eh]
    ---------------------

    Doubly Occupied:                                                      

       1Ap   -21.118342     2Ap    -1.801215     3Ap    -1.174997  
       4Ap    -1.048444  

    Singly Occupied:                                                      

       1App   -0.686268  

    Virtual:                                                              

       5Ap    -0.181305     6Ap    -0.116690     7Ap    -0.060936  
       2App   -0.057656     8Ap    -0.042070     9Ap    -0.027364  
      10Ap     0.010422    11Ap     0.017989     3App    0.036607  
       4App    0.069507    12Ap     0.072242    13Ap     0.162862  
      14Ap     0.177807    15Ap     0.194845    16Ap     0.323041  
      17Ap     0.347844    18Ap     0.408850     5App    0.422936  
       6App    0.423272    19Ap     0.515922     7App    0.554008  
      20Ap     0.583267    21Ap     0.596924     8App    0.607214  
       9App    0.623589    22Ap     0.661245    23Ap     0.666855  
      24Ap     0.727674    25Ap     0.742630    10App    0.747971  
      26Ap     0.828142    27Ap     0.861380    11App    0.871803  
      28Ap     0.964690    12App    1.163848    13App    1.223428  
      29Ap     1.243277    30Ap     1.411773    31Ap     1.442619  
      32Ap     1.579283    33Ap     1.683467    14App    1.832488  
      15App    1.898408    34Ap     1.944669    35Ap     1.980563  
      16App    2.004004    36Ap     2.051092    37Ap     2.096034  
      17App    2.305696    38Ap     2.313212    39Ap     2.322307  
      18App    2.451689    40Ap     2.486139    41Ap     3.162065  
      42Ap     3.305778    19App    3.574548    20App    3.584459  
      43Ap     3.767847    44Ap     3.779526    21App    3.897624  
      22App    3.965188    23App    3.968696    45Ap     4.046723  
      46Ap     4.072273    47Ap     4.203075    48Ap     4.276478  
      49Ap     4.606771    24App    4.631814    50Ap     4.736942  
      51Ap     4.831645    25App    4.919925    52Ap     5.220112  
      53Ap     5.605706    54Ap     6.064473    26App    6.203361  
      55Ap     6.293742    27App    6.597523    28App    6.703066  
      29App    6.717677    56Ap     6.774612    57Ap     6.835541  
      30App    6.851202    58Ap     6.968917    59Ap     7.307699  
      60Ap     7.404763    61Ap     8.080783    62Ap    14.115151  

    Final Occupation by Irrep:
             Ap   App 
    DOCC [     4,    0 ]
    SOCC [     0,    1 ]

  Energy converged.

  @ROHF Final Energy:   -75.70483181756848

   => Energetics <=

    Nuclear Repulsion Energy =              8.7926312875748494
    One-Electron Energy =                -117.6008060798183124
    Two-Electron Energy =                  33.1033429746749874
    Total Energy =                        -75.7048318175684756



Properties will be evaluated at   0.000000,   0.000000,   0.000000 [a0]

Properties computed using the SCF density matrix

  Nuclear Dipole Moment: [e a0]
     X:     0.0124      Y:     0.9647      Z:     0.0000

  Electronic Dipole Moment: [e a0]
     X:     0.0038      Y:     0.0038      Z:     0.0000

  Dipole Moment: [e a0]
     X:     0.0161      Y:     0.9685      Z:     0.0000     Total:     0.9686

  Dipole Moment: [D]
     X:     0.0410      Y:     2.4616      Z:     0.0000     Total:     2.4620


*** tstop() called on node6 at Sat Nov  5 10:19:18 2022
Module time:
	user time   =       5.10 seconds =       0.08 minutes
	system time =       0.12 seconds =       0.00 minutes
	total time  =          2 seconds =       0.03 minutes
Total time:
	user time   =       5.10 seconds =       0.08 minutes
	system time =       0.12 seconds =       0.00 minutes
	total time  =          2 seconds =       0.03 minutes
   => Loading Basis Set <=

    Name: (AUG-CC-PVTZ-DK AUX)
    Role: DECON
    Keyword: BASIS_RELATIVISTIC
    atoms 1, 3 entry H          line    45 file /home/qc/psi4conda/share/psi4/basis/aug-cc-pvtz-dk.gbs func decontract
    atoms 2    entry O          line   324 file /home/qc/psi4conda/share/psi4/basis/aug-cc-pvtz-dk.gbs func decontract

 MINTS: Wrapper to libmints.
   by Justin Turney

   Calculation information:
      Number of threads:                 4
      Number of atoms:                   3
      Number of AO shells:              32
      Number of SO shells:              32
      Number of primitives:             52
      Number of atomic orbitals:       105
      Number of basis functions:        92

      Number of irreps:                  2
      Integral cutoff                 1.00e-20
      Number of functions per irrep: [  62   30 ]

 OEINTS: Using relativistic (X2C) overlap, kinetic, and potential integrals.
         ------------------------------------------------------------
         Spin-Free X2C Integrals at the One-Electron Level (SFX2C-1e)
                 by Prakash Verma and Francesco A. Evangelista
         ------------------------------------------------------------

  ==> X2C Options <==

    Computational Basis: AUG-CC-PVTZ-DK
    X2C Basis: (AUG-CC-PVTZ-DK AUX)
    The X2C Hamiltonian will be computed in the X2C Basis

    Comparing only 62 out of 76 elements of H_Dirac

    Comparing only 30 out of 32 elements of H_Dirac

    The 1-norm of |H_X2C - H_Dirac| is: 6.762464145852

    WARNING: The X2C and Dirac Hamiltonians have substatially different eigenvalues!
             This is probably caused by the recontraction of the basis set.

 OEINTS: Overlap, kinetic, potential, dipole, and quadrupole integrals
         stored in file 35.

      Computing two-electron integrals...done
      Computed 4405735 non-zero two-electron integrals.
        Stored in file 33.


*** tstart() called on node6
*** at Sat Nov  5 10:19:19 2022


	Wfn Parameters:
	--------------------
	Wavefunction         = CC3
	Number of irreps     = 2
	Number of MOs        = 92
	Number of active MOs = 91
	AO-Basis             = NONE
	Semicanonical        = true
	Reference            = ROHF changed to UHF for semicanonical orbitals
	Print Level          = 1

	IRREP	# MOs	# FZDC	# DOCC	# SOCC	# VIRT	# FZVR
	-----	-----	------	------	------	------	------
	 Ap	   62	    1	    3	    0	    58	    0
	 App	   30	    0	    0	    1	    29	    0
	Transforming integrals...
	IWL integrals will be deleted.
	(OO|OO)...
	Presorting SO-basis two-electron integrals.
	Sorting File: SO Ints (nn|nn) nbuckets = 1
	Transforming the one-electron integrals and constructing Fock matrices
	Starting AA/AB first half-transformation.
	Sorting AA/AB half-transformed integrals.
	Starting BB first half-transformation.
	Sorting BB half-transformed integrals.
	First half integral transformation complete.
	Starting AA second half-transformation.
	Starting AB second half-transformation.
	Starting BB second half-transformation.
	Two-electron integral transformation complete.
	(OO|OV)...
	Starting AA second half-transformation.
	Starting AB second half-transformation.
	Starting BB second half-transformation.
	Two-electron integral transformation complete.
	(OO|VV)...
	Starting AA second half-transformation.
	Starting AB second half-transformation.
	Starting BB second half-transformation.
	Two-electron integral transformation complete.
	(OV|OO)...
	Starting AA/AB first half-transformation.
	Sorting AA/AB half-transformed integrals.
	Starting BB first half-transformation.
	Sorting BB half-transformed integrals.
	First half integral transformation complete.
	Starting AA second half-transformation.
	Starting AB second half-transformation.
	Starting BB second half-transformation.
	Two-electron integral transformation complete.
	(OV|OV)...
	Starting AA second half-transformation.
	Starting AB second half-transformation.
	Starting BB second half-transformation.
	Two-electron integral transformation complete.
	(OV|VV)...
	Starting AA second half-transformation.
	Starting AB second half-transformation.
	Starting BB second half-transformation.
	Two-electron integral transformation complete.
	(VV|OO)...
	Starting AA/AB first half-transformation.
	Sorting AA/AB half-transformed integrals.
	Starting BB first half-transformation.
	Sorting BB half-transformed integrals.
	First half integral transformation complete.
	Starting AA second half-transformation.
	Starting AB second half-transformation.
	Starting BB second half-transformation.
	Two-electron integral transformation complete.
	(VV|OV)...
	Starting AA second half-transformation.
	Starting AB second half-transformation.
	Starting BB second half-transformation.
	Two-electron integral transformation complete.
	(VV|VV)...
	Starting AA second half-transformation.
	Starting AB second half-transformation.
	Starting BB second half-transformation.
	Two-electron integral transformation complete.
	Frozen core energy     =    -61.26805328339965

	Size of irrep 0 of <AB|CD> integrals:      4.239 (MW) /     33.916 (MB)
	Size of irrep 1 of <AB|CD> integrals:      2.829 (MW) /     22.633 (MB)
	Total:                                     7.069 (MW) /     56.549 (MB)

	Size of irrep 0 of <ab|cd> integrals:      4.360 (MW) /     34.878 (MB)
	Size of irrep 1 of <ab|cd> integrals:      3.028 (MW) /     24.221 (MB)
	Total:                                     7.387 (MW) /     59.099 (MB)

	Size of irrep 0 of <Ab|Cd> integrals:     17.927 (MW) /    143.414 (MB)
	Size of irrep 1 of <Ab|Cd> integrals:     11.710 (MW) /     93.681 (MB)
	Total:                                    29.637 (MW) /    237.095 (MB)

	Size of irrep 0 of <IA|BC> integrals:      0.854 (MW) /      6.829 (MB)
	Size of irrep 1 of <IA|BC> integrals:      0.488 (MW) /      3.902 (MB)
	Total:                                     1.341 (MW) /     10.731 (MB)

	Size of irrep 0 of <ia|bc> integrals:      0.742 (MW) /      5.935 (MB)
	Size of irrep 1 of <ia|bc> integrals:      0.313 (MW) /      2.506 (MB)
	Total:                                     1.055 (MW) /      8.441 (MB)

	Size of irrep 0 of <Ia|Bc> integrals:      0.864 (MW) /      6.910 (MB)
	Size of irrep 1 of <Ia|Bc> integrals:      0.506 (MW) /      4.052 (MB)
	Total:                                     1.370 (MW) /     10.962 (MB)

	Size of irrep 0 of <iA|bC> integrals:      0.737 (MW) /      5.894 (MB)
	Size of irrep 1 of <iA|bC> integrals:      0.298 (MW) /      2.382 (MB)
	Total:                                     1.034 (MW) /      8.275 (MB)

	Size of irrep 0 of tIjAb amplitudes:       0.038 (MW) /      0.305 (MB)
	Size of irrep 1 of tIjAb amplitudes:       0.010 (MW) /      0.082 (MB)
	Total:                                     0.048 (MW) /      0.387 (MB)

	Nuclear Rep. energy          =      8.79263128757485
	SCF energy                   =    -75.70483181756848
	One-electron energy          =    -37.30141984161887
	Two-electron (AA) energy     =      3.70071640923898
	Two-electron (BB) energy     =      1.75294249594737
	Two-electron (AB) energy     =      8.61835111468900
	Two-electron energy          =     14.07201001987535
	Reference energy             =    -75.70483181756832

*** tstop() called on node6 at Sat Nov  5 10:19:26 2022
Module time:
	user time   =      17.75 seconds =       0.30 minutes
	system time =       2.96 seconds =       0.05 minutes
	total time  =          7 seconds =       0.12 minutes
Total time:
	user time   =      24.67 seconds =       0.41 minutes
	system time =       3.21 seconds =       0.05 minutes
	total time  =         10 seconds =       0.17 minutes

*** tstart() called on node6
*** at Sat Nov  5 10:19:26 2022

            **************************
            *                        *
            *        CCENERGY        *
            *                        *
            **************************

    Nuclear Rep. energy (wfn)     =    8.792631287574849
    SCF energy          (wfn)     =  -75.704831817568476
    Reference energy    (file100) =  -75.704831817568319

    Input parameters:
    -----------------
    Wave function   =     CC3
    Reference wfn   =     ROHF changed to UHF for Semicanonical Orbitals
    Brueckner       =     No
    Memory (Mbytes) =     31950.0
    Maxiter         =    500
    R_Convergence   =     1.0e-12
    E_Convergence   =     1.0e-06
    Restart         =     Yes
    DIIS            =     Yes
    AO Basis        =     NONE
    ABCD            =     NEW
    Cache Level     =     0
    Cache Type      =     LRU
    Print Level     =     1
    Num. of threads =     4
    # Amps to Print =     10
    Print MP2 Amps? =     No
    Analyze T2 Amps =     No
    Print Pair Ener =     No
    Local CC        =     No
    T3 Ws incore    =     No
    SCS-MP2         =     False
    SCSN-MP2        =     False
    SCS-CCSD        =     False

MP2 correlation energy -0.2071154584533249
                Solving CC Amplitude Equations
                ------------------------------
  Iter             Energy              RMS        T1Diag      D1Diag    New D1Diag    D2Diag
  ----     ---------------------    ---------   ----------  ----------  ----------   --------
     0        -0.207173720464241    0.000e+00    0.013491    0.000000    0.000000    0.000000
     1        -0.222138253596035    3.330e-02    0.016629    0.000000    0.000000    0.000000
     2        -0.227141181182678    1.211e-02    0.018351    0.000000    0.000000    0.000000
     3        -0.227437929078459    4.099e-03    0.018914    0.000000    0.000000    0.000000
     4        -0.227448776609084    1.779e-03    0.018981    0.000000    0.000000    0.000000
     5        -0.227484843251522    7.382e-04    0.018952    0.000000    0.000000    0.000000
     6        -0.227488357713782    2.437e-04    0.018918    0.000000    0.000000    0.000000
     7        -0.227490595054888    9.308e-05    0.018907    0.000000    0.000000    0.000000
     8        -0.227490431103473    3.251e-05    0.018906    0.000000    0.000000    0.000000
     9        -0.227490394993136    1.089e-05    0.018906    0.000000    0.000000    0.000000
    10        -0.227490514048528    4.020e-06    0.018906    0.000000    0.000000    0.000000
    11        -0.227490450670291    1.361e-06    0.018906    0.000000    0.000000    0.000000
    12        -0.227490433258268    4.092e-07    0.018907    0.000000    0.000000    0.000000
    13        -0.227490422827026    1.134e-07    0.018907    0.000000    0.000000    0.000000
    14        -0.227490422464711    3.454e-08    0.018907    0.000000    0.000000    0.000000
    15        -0.227490422428071    1.337e-08    0.018907    0.000000    0.000000    0.000000
    16        -0.227490422354841    6.067e-09    0.018907    0.000000    0.000000    0.000000
    17        -0.227490422253662    2.708e-09    0.018907    0.000000    0.000000    0.000000
    18        -0.227490422189672    1.114e-09    0.018907    0.000000    0.000000    0.000000
    19        -0.227490422180148    4.480e-10    0.018907    0.000000    0.000000    0.000000
    20        -0.227490422181178    1.572e-10    0.018907    0.000000    0.000000    0.000000
    21        -0.227490422180309    5.469e-11    0.018907    0.000000    0.000000    0.000000
    22        -0.227490422180345    1.959e-11    0.018907    0.000000    0.000000    0.000000
    23        -0.227490422180297    6.237e-12    0.018907    0.000000    0.000000    0.000000
    24        -0.227490422180326    2.235e-12    0.018907    0.000000    0.000000    0.000000
    25        -0.227490422180328    7.447e-13    0.018907    0.000000    0.000000    0.000000

    Iterations converged.


    Largest TIA Amplitudes:
              0  26         0.0095808297
              0   0        -0.0088567070
              0  12        -0.0085279896
              0  28        -0.0082938033
              0  30         0.0078859874
              0   9         0.0077581854
              0  13        -0.0076430536
              0   3         0.0072969101
              3  58        -0.0062146442
              2  30         0.0058401336

    Largest Tia Amplitudes:
              2   2        -0.0107696739
              1   4         0.0105057379
              0   0         0.0098885009
              0   3        -0.0096488694
              1   1         0.0093030259
              1  10         0.0086024517
              0  30         0.0082284572
              2   0        -0.0081287658
              0  13         0.0081269388
              2   7         0.0079191802

    Largest TIJAB Amplitudes:
      3   2  63  15         0.0084432611
      3   1  63  10         0.0080195361
      3   2  70  30         0.0077205187
      3   1  62  12        -0.0075979712
      3   1  63   4         0.0070831397
      2   1  15  10        -0.0069967256
      3   1  63   1         0.0069448628
      3   2  64  15        -0.0066967869
      3   2  61  13        -0.0066453611
      3   2  58  15         0.0066448155

    Largest Tijab Amplitudes:
      2   0  63  58         0.0080908500
      1   0  62  58        -0.0077025043
      2   0  71  58         0.0074132852
      2   1  12   4         0.0070904807
      2   1  15  10         0.0070533187
      2   1  12  10         0.0067695491
      2   1  12  11         0.0063844429
      2   1  15   1         0.0063479558
      2   1  10   2        -0.0061095454
      1   0  69  58        -0.0060626351

    Largest TIjAb Amplitudes:
      1   1  10  10        -0.0190784295
      2   2  15  15         0.0178705230
      1   1   4  10        -0.0173416585
      1   1  10   4        -0.0172539724
      3   0   0  58        -0.0165092355
      1   1   4   4        -0.0161377941
      3   0  12  58        -0.0161154427
      3   0  26  58         0.0152689778
      1   1   1  10        -0.0152573563
      2   0  70  58         0.0148984274

    SCF energy       (wfn)                    =  -75.704831817568476
    Reference energy (file100)                =  -75.704831817568319

    Opposite-spin MP2 correlation energy      =   -0.158117496915595
    Same-spin MP2 correlation energy          =   -0.045394258916343
    MP2 correlation energy                    =   -0.207115458453325
      * MP2 total energy                      =  -75.911947276021650
    CC3 correlation energy                    =   -0.227490422180328
      * CC3 total energy                      =  -75.932322239748643


*** tstop() called on node6 at Sat Nov  5 10:23:51 2022
Module time:
	user time   =     978.80 seconds =      16.31 minutes
	system time =      74.99 seconds =       1.25 minutes
	total time  =        265 seconds =       4.42 minutes
Total time:
	user time   =    1003.48 seconds =      16.72 minutes
	system time =      78.20 seconds =       1.30 minutes
	total time  =        275 seconds =       4.58 minutes

*** tstart() called on node6
*** at Sat Nov  5 10:23:51 2022


			**************************
			*                        *
			*         CCHBAR         *
			*                        *
			**************************

Dots of (HeT1)c in names "CC3 Wxxx" in CC3_HET1 
Wamef terms
	<WAMEF|WAMEF> =   13.2954382880
	<Wamef|Wamef> =   10.8484733917
	<WAmEf|WAmEf> =    9.3113770295
	<WaMeF|WaMeF> =   12.6539918610
Wmnie terms
	<WMNIE (M>N,IE)|WMNIE> =    0.7439997242
	<Wmnie (m>n,ie)|Wmnie> =    0.3277204348
	<WMnIe (Mn,Ie)|WMnIe> =    0.7251361752
	<WmNiE (mN,iE)|WmNiE> =    0.6136095332
	<WMNIE(M>N,EI)|WMNIE(M>N,EI)> =    0.7439997242
	<Wmnie(m>n,ei)|Wmnie(m>n,ei)> =    0.3277204348
	<WMnIe(Mn,eI)|WMnIe(Mn,eI)> =    0.7251361752
	<WmNiE(mN,Ei)|WmNiE(mN,Ei)> =    0.6136095332
Doing Wmnij terms.
	<WMNIJ (M>N,I>J)|WMNIJ> =    9.2273081031
	<Wmnij (m>n,i>j)|Wmnij> =    4.0463468706
	<WMnIj (Mn,Ij)|WMnIj> =    6.3905596631
Doing Wmbij terms.
	<WMBIJ (MB,I>J)|WMBIJ> =    0.7493503638
	<WMBIJ (I>J,MB)|WMBIJ> =    0.7493503638
	<Wmbij (mb,i>j)|Wmbij> =    0.3335338421
	<Wmbij (i>j,mb)|Wmbij> =    0.3335338421
	<WMbIj (Mb,Ij)|WMbIj> =    0.7285847085
	<WMbIj (Ij,Mb)|WMbIj> =    0.7285847085
	<WmBiJ (mB,iJ)|WmBiJ> =    0.6169729223
	<WmBiJ (iJ,mB)|WmBiJ> =    0.6169729223
Doing Wmbej terms.
	<WMBEJ (all ME,JB)|WMBEJ> =   81.8696004505
	<Wmbej|Wmbej> =   61.9712050664
	<WMbEj|WMbEj> =    1.0297617702
	<WmBeJ|WmBeJ> =    1.0392667688
	<WMbeJ|WMbeJ> =   94.8942236766
	<WmBEj|WmBEj> =   67.9598906652
Doing Wabei terms.
	<WABEI (IE,B>A) |WABEI> =   13.3492411044
	<Wabei (ie,b>a)|Wabei> =   10.9471981595
	<WAbEi (iE,bA)|WAbEi> =    9.3863176558
	<WAbEi (iE,Ba)|WAbEi> =   12.6891448276

*** tstop() called on node6 at Sat Nov  5 10:23:54 2022
Module time:
	user time   =       6.72 seconds =       0.11 minutes
	system time =       1.45 seconds =       0.02 minutes
	total time  =          3 seconds =       0.05 minutes
Total time:
	user time   =    1010.21 seconds =      16.84 minutes
	system time =      79.65 seconds =       1.33 minutes
	total time  =        278 seconds =       4.63 minutes

*** tstart() called on node6
*** at Sat Nov  5 10:23:54 2022


	**********************************************************
	*  CCEOM: An Equation of Motion Coupled Cluster Program  *
	**********************************************************

	Nuclear Rep. energy (wfn)     =    8.792631287574849
	SCF energy          (wfn)     =  -75.704831817568476
	Reference energy    (file100) =  -75.704831817568319
	CC3 energy          (file100) =   -0.227490422180328

	Input parameters:
	-----------------
	Reference wfn   = ROHF changed to UHF for Semicanonical Orbitals
	Reference EOM wfn=     UHF
	Memory (Mbytes) =  31950.0
	ABCD            =     NEW
	Cache Level     =    0
	Cache Type      =     LRU
	T3 Ws incore  =      No
	Num. of threads =     4
	Local CC        =     No


	CCEOM parameters:
	-----------------
	States sought per irrep     = Ap 0, App 1,
	Max. number of iterations   =   500
	Vectors stored per root     =    12
	Print HbarSS iterations?    =     0
	Excitation range for HBarSS =     2
	Eigenvalue tolerance        = 1.0e-06
	Eigenvalue toleranceSS      = 1.0e-06
	Residual vector tolerance   = 1.0e-08
	Residual vector toleranceSS = 1.0e-06
	Complex tolerance           = 1.0e-12
	Root for properties         =     1
	Sym of state for properties =     Ap
	Guess vectors taken from    = SINGLES
	Restart EOM CC3             = NO
	Collapse with last vector   = YES


Symmetry of ground state: App
Symmetry of excited state: App
Symmetry of right eigenvector: Ap
Obtaining initial guess from singles-singles block of Hbar...Done.

Iter=1    L=1     Root    EOM Energy     Delta E   Res. Norm    Conv?
                     1   0.5785338279   5.79e-01    5.14e-01      N
Iter=2    L=2     Root    EOM Energy     Delta E   Res. Norm    Conv?
                     1   0.4871297296  -9.14e-02    9.71e-02      N
Iter=3    L=3     Root    EOM Energy     Delta E   Res. Norm    Conv?
                     1   0.4809360757  -6.19e-03    6.37e-02      N
Iter=4    L=4     Root    EOM Energy     Delta E   Res. Norm    Conv?
                     1   0.4776988266  -3.24e-03    4.65e-02      N
Iter=5    L=5     Root    EOM Energy     Delta E   Res. Norm    Conv?
                     1   0.4764692489  -1.23e-03    2.71e-02      N
Iter=6    L=6     Root    EOM Energy     Delta E   Res. Norm    Conv?
                     1   0.4760349417  -4.34e-04    1.36e-02      N
Iter=7    L=7     Root    EOM Energy     Delta E   Res. Norm    Conv?
                     1   0.4758968618  -1.38e-04    8.77e-03      N
Iter=8    L=8     Root    EOM Energy     Delta E   Res. Norm    Conv?
                     1   0.4758210823  -7.58e-05    6.31e-03      N
Iter=9    L=9     Root    EOM Energy     Delta E   Res. Norm    Conv?
                     1   0.4757845490  -3.65e-05    3.88e-03      N
Iter=10   L=10    Root    EOM Energy     Delta E   Res. Norm    Conv?
                     1   0.4757734536  -1.11e-05    2.96e-03      N
Iter=11   L=11    Root    EOM Energy     Delta E   Res. Norm    Conv?
                     1   0.4757637451  -9.71e-06    2.39e-03      N
Iter=12   L=12    Root    EOM Energy     Delta E   Res. Norm    Conv?
                     1   0.4757602103  -3.53e-06    1.38e-03      N
Iter=13   L=2     Root    EOM Energy     Delta E   Res. Norm    Conv?
                     1   0.4757602103  -1.22e-15    1.38e-03      N
Iter=14   L=3     Root    EOM Energy     Delta E   Res. Norm    Conv?
                     1   0.4757594260  -7.84e-07    6.76e-04      N
Iter=15   L=4     Root    EOM Energy     Delta E   Res. Norm    Conv?
                     1   0.4757596788   2.53e-07    4.06e-04      N
Iter=16   L=5     Root    EOM Energy     Delta E   Res. Norm    Conv?
                     1   0.4757589429  -7.36e-07    2.35e-04      N
Iter=17   L=6     Root    EOM Energy     Delta E   Res. Norm    Conv?
                     1   0.4757585055  -4.37e-07    1.05e-04      N
Iter=18   L=7     Root    EOM Energy     Delta E   Res. Norm    Conv?
                     1   0.4757586116   1.06e-07    4.86e-05      N
Iter=19   L=8     Root    EOM Energy     Delta E   Res. Norm    Conv?
                     1   0.4757585379  -7.37e-08    3.21e-05      N
Iter=20   L=9     Root    EOM Energy     Delta E   Res. Norm    Conv?
                     1   0.4757585237  -1.42e-08    2.83e-05      N
Iter=21   L=10    Root    EOM Energy     Delta E   Res. Norm    Conv?
                     1   0.4757585197  -4.00e-09    1.85e-05      N
Iter=22   L=11    Root    EOM Energy     Delta E   Res. Norm    Conv?
                     1   0.4757585380   1.83e-08    1.08e-05      N
Iter=23   L=12    Root    EOM Energy     Delta E   Res. Norm    Conv?
                     1   0.4757585526   1.46e-08    5.28e-06      N
Iter=24   L=2     Root    EOM Energy     Delta E   Res. Norm    Conv?
                     1   0.4757585526   1.16e-14    5.28e-06      N
Iter=25   L=3     Root    EOM Energy     Delta E   Res. Norm    Conv?
                     1   0.4757585385  -1.42e-08    2.37e-06      N
Iter=26   L=4     Root    EOM Energy     Delta E   Res. Norm    Conv?
                     1   0.4757585349  -3.60e-09    1.40e-06      N
Iter=27   L=5     Root    EOM Energy     Delta E   Res. Norm    Conv?
                     1   0.4757585361   1.23e-09    9.55e-07      N
Iter=28   L=6     Root    EOM Energy     Delta E   Res. Norm    Conv?
                     1   0.4757585368   6.82e-10    4.82e-07      N
Iter=29   L=7     Root    EOM Energy     Delta E   Res. Norm    Conv?
                     1   0.4757585369   1.84e-10    2.08e-07      N
Iter=30   L=8     Root    EOM Energy     Delta E   Res. Norm    Conv?
                     1   0.4757585368  -1.31e-10    9.38e-08      N
Iter=31   L=9     Root    EOM Energy     Delta E   Res. Norm    Conv?
                     1   0.4757585368  -6.13e-11    4.85e-08      N
Iter=32   L=10    Root    EOM Energy     Delta E   Res. Norm    Conv?
                     1   0.4757585367  -3.48e-11    3.31e-08      N
Iter=33   L=11    Root    EOM Energy     Delta E   Res. Norm    Conv?
                     1   0.4757585367  -6.10e-11    2.23e-08      N
Iter=34   L=12    Root    EOM Energy     Delta E   Res. Norm    Conv?
                     1   0.4757585367   7.01e-12    1.54e-08      N
Iter=35   L=2     Root    EOM Energy     Delta E   Res. Norm    Conv?
                     1   0.4757585367   8.32e-13    1.80e-08      N
Iter=36   L=3     Root    EOM Energy     Delta E   Res. Norm    Conv?
                     1   0.4757585366  -3.87e-11    1.44e-08      N
Iter=37   L=4     Root    EOM Energy     Delta E   Res. Norm    Conv?
                     1   0.4757585366  -1.52e-11    9.40e-09      Y
Completed EOM_CCSD
Collapsing to only 1 vector(s).
Copying root 1 to CC3_MISC file.
Setting initial CC3 eigenvalue to    0.4757585366
Iter=1    L=1     Root    EOM Energy     Delta E   Res. Norm    Conv?
                     1   0.4704697599  -5.29e-03    4.35e-02      N
Iter=2    L=2     Root    EOM Energy     Delta E   Res. Norm    Conv?
                     1   0.4689222907  -1.55e-03    2.70e-02      N
Iter=3    L=3     Root    EOM Energy     Delta E   Res. Norm    Conv?
                     1   0.4674750079  -1.45e-03    4.25e-02      N
Iter=4    L=4     Root    EOM Energy     Delta E   Res. Norm    Conv?
                     1   0.4656601223  -1.81e-03    2.50e-02      N
Iter=5    L=5     Root    EOM Energy     Delta E   Res. Norm    Conv?
                     1   0.4652656462  -3.94e-04    1.30e-02      N
Iter=6    L=6     Root    EOM Energy     Delta E   Res. Norm    Conv?
                     1   0.4651343082  -1.31e-04    1.24e-02      N
Iter=7    L=7     Root    EOM Energy     Delta E   Res. Norm    Conv?
                     1   0.4649855337  -1.49e-04    9.39e-03      N
Iter=8    L=8     Root    EOM Energy     Delta E   Res. Norm    Conv?
                     1   0.4649028247  -8.27e-05    5.31e-03      N
Iter=9    L=9     Root    EOM Energy     Delta E   Res. Norm    Conv?
                     1   0.4648971759  -5.65e-06    2.37e-03      N
Iter=10   L=10    Root    EOM Energy     Delta E   Res. Norm    Conv?
                     1   0.4648961331  -1.04e-06    1.19e-03      N
Collapsing to 2 vector(s).
Change in CC3 energy from last iterated value   -0.0108624035
Iter=11   L=2     Root    EOM Energy     Delta E   Res. Norm    Conv?
                     1   0.4649237545   2.76e-05    1.19e-03      N
Iter=12   L=3     Root    EOM Energy     Delta E   Res. Norm    Conv?
                     1   0.4649215706  -2.18e-06    7.79e-04      N
Iter=13   L=4     Root    EOM Energy     Delta E   Res. Norm    Conv?
                     1   0.4649213337  -2.37e-07    4.86e-04      N
Iter=14   L=5     Root    EOM Energy     Delta E   Res. Norm    Conv?
                     1   0.4649217210   3.87e-07    2.27e-04      N
Iter=15   L=6     Root    EOM Energy     Delta E   Res. Norm    Conv?
                     1   0.4649210911  -6.30e-07    1.21e-04      N
Iter=16   L=7     Root    EOM Energy     Delta E   Res. Norm    Conv?
                     1   0.4649210771  -1.41e-08    7.51e-05      N
Iter=17   L=8     Root    EOM Energy     Delta E   Res. Norm    Conv?
                     1   0.4649213845   3.07e-07    5.50e-05      N
Iter=18   L=9     Root    EOM Energy     Delta E   Res. Norm    Conv?
                     1   0.4649214460   6.16e-08    4.66e-05      N
Iter=19   L=10    Root    EOM Energy     Delta E   Res. Norm    Conv?
                     1   0.4649214195  -2.66e-08    3.34e-05      N
Collapsing to 2 vector(s).
Change in CC3 energy from last iterated value    0.0000252863
Iter=20   L=2     Root    EOM Energy     Delta E   Res. Norm    Conv?
                     1   0.4649213242  -9.53e-08    3.30e-05      N
Iter=21   L=3     Root    EOM Energy     Delta E   Res. Norm    Conv?
                     1   0.4649213564   3.22e-08    1.83e-05      N
Iter=22   L=4     Root    EOM Energy     Delta E   Res. Norm    Conv?
                     1   0.4649213754   1.90e-08    1.01e-05      N
Iter=23   L=5     Root    EOM Energy     Delta E   Res. Norm    Conv?
                     1   0.4649213865   1.11e-08    4.87e-06      N
Iter=24   L=6     Root    EOM Energy     Delta E   Res. Norm    Conv?
                     1   0.4649213883   1.73e-09    2.29e-06      N
Iter=25   L=7     Root    EOM Energy     Delta E   Res. Norm    Conv?
                     1   0.4649213876  -7.18e-10    1.35e-06      N
Iter=26   L=8     Root    EOM Energy     Delta E   Res. Norm    Conv?
                     1   0.4649213858  -1.71e-09    8.12e-07      N
Iter=27   L=9     Root    EOM Energy     Delta E   Res. Norm    Conv?
                     1   0.4649213862   3.47e-10    5.03e-07      N
Iter=28   L=10    Root    EOM Energy     Delta E   Res. Norm    Conv?
                     1   0.4649213866   3.87e-10    3.13e-07      N
Collapsing to 2 vector(s).
Change in CC3 energy from last iterated value   -0.0000000329
Iter=29   L=2     Root    EOM Energy     Delta E   Res. Norm    Conv?
                     1   0.4649213867   1.24e-10    3.13e-07      N
Iter=30   L=3     Root    EOM Energy     Delta E   Res. Norm    Conv?
                     1   0.4649213867  -1.58e-11    1.55e-07      N
Iter=31   L=4     Root    EOM Energy     Delta E   Res. Norm    Conv?
                     1   0.4649213867   3.77e-11    7.90e-08      N
Iter=32   L=5     Root    EOM Energy     Delta E   Res. Norm    Conv?
                     1   0.4649213868   2.73e-11    4.83e-08      N
Iter=33   L=6     Root    EOM Energy     Delta E   Res. Norm    Conv?
                     1   0.4649213868   3.01e-12    4.29e-08      N
Iter=34   L=7     Root    EOM Energy     Delta E   Res. Norm    Conv?
                     1   0.4649213868   9.87e-12    3.38e-08      N
Iter=35   L=8     Root    EOM Energy     Delta E   Res. Norm    Conv?
                     1   0.4649213868  -1.07e-11    1.82e-08      N
Iter=36   L=9     Root    EOM Energy     Delta E   Res. Norm    Conv?
                     1   0.4649213867  -2.35e-12    9.33e-09      Y
Collapsing to only 1 vector(s).
Change in CC3 energy from last iterated value    0.0000000002

Procedure converged for 1 root(s).
Energy written to CC_INFO:Etot  -75.4674008530
States per irrep written to CC_INFO.
<R|R> =   1.0000000000000002
EOM CC3 R0 for root 0 =  -0.00401032874

Final Energetic Summary for Converged Roots of Irrep App
                     Excitation Energy              Total Energy
                (eV)     (cm^-1)     (au)             (au)
EOM State 1     12.651   102038.4   0.4649213867   -75.467400852999

Largest components of excited wave function #1:
 RIA (libdpd indices) : (cscf notation)
         2 >   0      :       4ap >    5ap :    0.4929584212
         2 >   3      :       4ap >    8ap :   -0.1732299653
         2 >   9      :       4ap >   14ap :   -0.1363446915
         2 >   2      :       4ap >    7ap :    0.1272327423
         2 >   7      :       4ap >   12ap :   -0.0512556726
 Ria (libdpd indices) : (cscf notation)
         2 >   0      :       4ap >    5ap :   -0.5828870612
         2 >   3      :       4ap >    8ap :    0.2327064118
         2 >   9      :       4ap >   14ap :    0.1709920096
         2 >   2      :       4ap >    7ap :   -0.1393972202
         2 >   7      :       4ap >   12ap :    0.0586217876
 RIjAb (libdpd indices)     : (cscf notation)
        0   2 >   0   0     :   1app    4ap >    5ap   1app :   -0.3346771553
        0   2 >   3   0     :   1app    4ap >    8ap   1app :    0.1177749749
        0   2 >   0   1     :   1app    4ap >    5ap   2app :   -0.0956758486
        0   2 >   9   0     :   1app    4ap >   14ap   1app :    0.0930869673
        0   2 >   2   0     :   1app    4ap >    7ap   1app :   -0.0841872859
 RIJAB (libdpd indices)     : (cscf notation)
        0   2 >   5   0     :   1app    4ap >   7app    5ap :    0.0199677939
        0   2 >   0   0     :   1app    4ap >   2app    5ap :    0.0193682285
        2   1 >  10   0     :    4ap    3ap >   15ap    5ap :    0.0189246779
        2   1 >   4   0     :    4ap    3ap >    9ap    5ap :    0.0182228950
        2   1 >   1   0     :    4ap    3ap >    6ap    5ap :    0.0169127918
 Rijab (libdpd indices)     : (cscf notation)
        2   1 >  10   0     :    4ap    3ap >   15ap    5ap :   -0.0238325787
        2   1 >   4   0     :    4ap    3ap >    9ap    5ap :   -0.0232231092
        2   1 >   1   0     :    4ap    3ap >    6ap    5ap :   -0.0204101605
        2   1 >  20   0     :    4ap    3ap >   25ap    5ap :   -0.0133862341
        2   0 >   9   0     :    4ap    2ap >   14ap    5ap :    0.0095437734

	Putting into environment energy for root of R irrep 1 and root 1.
	Putting into environment CURRENT ENERGY:              -75.4674008530

	Total # of sigma evaluations: 73

*** tstop() called on node6 at Sat Nov  5 10:38:22 2022
Module time:
	user time   =    3247.37 seconds =      54.12 minutes
	system time =     217.41 seconds =       3.62 minutes
	total time  =        868 seconds =      14.47 minutes
Total time:
	user time   =    4257.58 seconds =      70.96 minutes
	system time =     297.06 seconds =       4.95 minutes
	total time  =       1146 seconds =      19.10 minutes

    Psi4 stopped on: Saturday, 05 November 2022 10:38AM
    Psi4 wall time for execution: 0:19:05.16

*** Psi4 exiting successfully. Buy a developer a beer!
