
    -----------------------------------------------------------------------
          Psi4: An Open-Source Ab Initio Electronic Structure Package
                               Psi4 1.2 release

                         Git: Rev {HEAD} 9d4a61c 


    R. M. Parrish, L. A. Burns, D. G. A. Smith, A. C. Simmonett,
    A. E. DePrince III, E. G. Hohenstein, U. Bozkaya, A. Yu. Sokolov,
    R. Di Remigio, R. M. Richard, J. F. Gonthier, A. M. James,
    H. R. McAlexander, A. Kumar, M. Saitow, X. Wang, B. P. Pritchard,
    P. Verma, H. F. Schaefer III, K. Patkowski, R. A. King, E. F. Valeev,
    F. A. Evangelista, J. M. Turney, T. D. Crawford, and C. D. Sherrill,
    J. Chem. Theory Comput. 13(7) pp 3185--3197 (2017).
    (doi: 10.1021/acs.jctc.7b00174)


                         Additional Contributions by
    P. Kraus, H. Kruse, M. H. Lechner, M. C. Schieber, and R. A. Shaw

    -----------------------------------------------------------------------


    Psi4 started on: Saturday, 05 November 2022 10:19AM

    Process ID: 39465
    Host:       node6
    PSIDATADIR: /home/qc/psi4conda/share/psi4
    Memory:     500.0 MiB
    Threads:    4
    
  ==> Input File <==

--------------------------------------------------------------------------
#h2o SPECIAL eom-cc3
memory 31950 mb

molecule h2o{
1 2
H        0.0000000000       -1.5370826536       -0.9717669131
O        0.0000000000        0.0000000000        0.1272696361
H        0.0000000000        1.5370826536       -0.9717669131

units bohr
}
 
set globals {
 reference rohf
 basis aug-cc-pvtz-dk
 freeze_core true
 cachelevel=0
 relativistic x2c
 maxiter=500
 dertype none
 ints_tolerance 20
 roots_per_irrep = [0,0,1,0]
}

set scf d_convergence 12
set ccenergy r_convergence 12
set cceom r_convergence 8

energy('eom-cc3')--------------------------------------------------------------------------

  Memory set to  29.756 GiB by Python driver.

*** tstart() called on node6
*** at Sat Nov  5 10:19:16 2022

   => Loading Basis Set <=

    Name: AUG-CC-PVTZ-DK
    Role: ORBITAL
    Keyword: BASIS
    atoms 1, 3 entry H          line    45 file /home/qc/psi4conda/share/psi4/basis/aug-cc-pvtz-dk.gbs 
    atoms 2    entry O          line   324 file /home/qc/psi4conda/share/psi4/basis/aug-cc-pvtz-dk.gbs 


         ---------------------------------------------------------
                                   SCF
            by Justin Turney, Rob Parrish, Andy Simmonett
                             and Daniel Smith
                             ROHF Reference
                        4 Threads,  30469 MiB Core
         ---------------------------------------------------------

  ==> Geometry <==

    Molecular point group: c2v
    Full point group: C2v

    Geometry (in Bohr), charge = 1, multiplicity = 2:

       Center              X                  Y                   Z               Mass       
    ------------   -----------------  -----------------  -----------------  -----------------
         H            0.000000000000    -1.537082653600    -0.976038013075     1.007825032070
         O           -0.000000000000     0.000000000000     0.122998536125    15.994914619560
         H           -0.000000000000     1.537082653600    -0.976038013075     1.007825032070

  Running in c2v symmetry.

  Rotational constants: A =     27.84199  B =     12.64109  C =      8.69383 [cm^-1]
  Rotational constants: A = 834681.77249  B = 378970.45598  C = 260634.57430 [MHz]
  Nuclear repulsion =    8.792791351744926

  Charge       = 1
  Multiplicity = 2
  Electrons    = 9
  Nalpha       = 5
  Nbeta        = 4

  ==> Algorithm <==

  SCF Algorithm Type is PK.
  DIIS enabled.
  MOM disabled.
  Fractional occupation disabled.
  Guess Type is GWH.
  Energy threshold   = 1.00e-08
  Density threshold  = 1.00e-12
  Integral threshold = 1.00e-20

  ==> Primary Basis <==

  Basis Set: AUG-CC-PVTZ-DK
    Blend: AUG-CC-PVTZ-DK
    Number of shells: 32
    Number of basis function: 92
    Number of Cartesian functions: 105
    Spherical Harmonics?: true
    Max angular momentum: 3

   => Loading Basis Set <=

    Name: (AUG-CC-PVTZ-DK AUX)
    Role: DECON
    Keyword: BASIS_RELATIVISTIC
    atoms 1, 3 entry H          line    45 file /home/qc/psi4conda/share/psi4/basis/aug-cc-pvtz-dk.gbs func decontract
    atoms 2    entry O          line   324 file /home/qc/psi4conda/share/psi4/basis/aug-cc-pvtz-dk.gbs func decontract

  ==> Pre-Iterations <==

   -------------------------------------------------------
    Irrep   Nso     Nmo     Nalpha   Nbeta   Ndocc  Nsocc
   -------------------------------------------------------
     A1        35      35       0       0       0       0
     A2        12      12       0       0       0       0
     B1        18      18       0       0       0       0
     B2        27      27       0       0       0       0
   -------------------------------------------------------
    Total      92      92       5       4       4       1
   -------------------------------------------------------

 OEINTS: Using relativistic (X2C) overlap, kinetic, and potential integrals.
         ------------------------------------------------------------
         Spin-Free X2C Integrals at the One-Electron Level (SFX2C-1e)
                 by Prakash Verma and Francesco A. Evangelista
         ------------------------------------------------------------

  ==> X2C Options <==

    Computational Basis: AUG-CC-PVTZ-DK
    X2C Basis: (AUG-CC-PVTZ-DK AUX)
    The X2C Hamiltonian will be computed in the X2C Basis

    Comparing only 35 out of 45 elements of H_Dirac

    Comparing only 18 out of 20 elements of H_Dirac

    Comparing only 27 out of 31 elements of H_Dirac

    The 1-norm of |H_X2C - H_Dirac| is: 6.757378164174

    WARNING: The X2C and Dirac Hamiltonians have substatially different eigenvalues!
             This is probably caused by the recontraction of the basis set.

  ==> Integral Setup <==

  Using in-core PK algorithm.
   Calculation information:
      Number of atoms:                   3
      Number of AO shells:              32
      Number of primitives:             52
      Number of atomic orbitals:       105
      Number of basis functions:        92

      Integral cutoff                 1.00e-20
      Number of threads:                 4

  Performing in-core PK
  Using 18305562 doubles for integral storage.
  We computed 171364 shell quartets total.
  Whereas there are 139656 unique shell quartets.
    22.70 percent of shell quartets recomputed by reordering.

  ==> DiskJK: Disk-Based J/K Matrices <==

    J tasked:                  Yes
    K tasked:                  Yes
    wK tasked:                  No
    Memory (MB):             22852
    Schwarz Cutoff:          1E-20

    OpenMP threads:              4

  Minimum eigenvalue in the overlap matrix is 4.1128510327E-04.
  Using Symmetric Orthogonalization.

  SCF Guess: Generalized Wolfsberg-Helmholtz.

  ==> Iterations <==

                        Total Energy        Delta E     RMS |[F,P]|

   @ROHF iter   1:   -69.33368332382268   -6.93337e+01   1.22246e-01 
   @ROHF iter   2:   -75.57263181365971   -6.23895e+00   1.44368e-02 DIIS
   @ROHF iter   3:   -75.69034851687876   -1.17717e-01   3.61783e-03 DIIS
   @ROHF iter   4:   -75.70249774519527   -1.21492e-02   1.48011e-03 DIIS
   @ROHF iter   5:   -75.70467885241533   -2.18111e-03   4.17137e-04 DIIS
   @ROHF iter   6:   -75.70486925720051   -1.90405e-04   7.03866e-05 DIIS
   @ROHF iter   7:   -75.70487872552529   -9.46832e-06   1.35521e-05 DIIS
   @ROHF iter   8:   -75.70487897366569   -2.48140e-07   1.92526e-06 DIIS
   @ROHF iter   9:   -75.70487897810241   -4.43673e-09   3.38887e-07 DIIS
   @ROHF iter  10:   -75.70487897821492   -1.12507e-10   6.06569e-08 DIIS
   @ROHF iter  11:   -75.70487897822088   -5.95435e-12   1.02459e-08 DIIS
   @ROHF iter  12:   -75.70487897822105   -1.70530e-13   1.40719e-09 DIIS
   @ROHF iter  13:   -75.70487897822098    7.10543e-14   2.01661e-10 DIIS
   @ROHF iter  14:   -75.70487897822098    0.00000e+00   3.66593e-11 DIIS
   @ROHF iter  15:   -75.70487897822090    7.10543e-14   7.22989e-12 DIIS
   @ROHF iter  16:   -75.70487897822103   -1.27898e-13   1.01969e-12 DIIS
   @ROHF iter  17:   -75.70487897822090    1.27898e-13   1.89006e-13 DIIS

  ==> Post-Iterations <==

    Orbital Energies [Eh]
    ---------------------

    Doubly Occupied:                                                      

       1A1   -21.118559     2A1    -1.801407     1B2    -1.174568  
       3A1    -1.048973  

    Singly Occupied:                                                      

       1B1    -0.686384  

    Virtual:                                                              

       4A1    -0.181313     2B2    -0.116692     5A1    -0.060966  
       2B1    -0.057654     6A1    -0.041826     3B2    -0.027596  
       4B2     0.010394     7A1     0.018054     1A2     0.036703  
       3B1     0.069182     8A1     0.071996     5B2     0.162927  
       9A1     0.178061     6B2     0.194457     7B2     0.322931  
      10A1     0.348125    11A1     0.408717     4B1     0.423259  
       2A2     0.423302    12A1     0.515956     5B1     0.553852  
      13A1     0.583270     8B2     0.596947     6B1     0.606945  
       3A2     0.623779     9B2     0.661261    14A1     0.666050  
      15A1     0.727668    10B2     0.742293     7B1     0.747716  
      11B2     0.827920    16A1     0.861997     4A2     0.872228  
      12B2     0.964523     5A2     1.163507     8B1     1.222575  
      17A1     1.241373    13B2     1.414399    18A1     1.442851  
      14B2     1.579300    19A1     1.682631     9B1     1.832875  
       6A2     1.898147    20A1     1.945154    21A1     1.981287  
      10B1     2.004733    15B2     2.052106    22A1     2.095401  
      11B1     2.305014    23A1     2.313826    16B2     2.320847  
       7A2     2.452220    17B2     2.483030    18B2     3.163913  
      24A1     3.304141     8A2     3.574775    12B1     3.584082  
      25A1     3.773253    19B2     3.773889    13B1     3.896229  
      14B1     3.965251     9A2     3.967913    20B2     4.047771  
      26A1     4.067874    27A1     4.205975    21B2     4.278471  
      22B2     4.609447    10A2     4.631911    28A1     4.735216  
      23B2     4.829361    15B1     4.919617    29A1     5.216971  
      30A1     5.609288    24B2     6.062722    16B1     6.203684  
      31A1     6.295939    17B1     6.597891    18B1     6.707848  
      11A2     6.712390    32A1     6.776856    25B2     6.829984  
      12A2     6.850814    33A1     6.967205    26B2     7.310276  
      34A1     7.402228    27B2     8.083517    35A1    14.107767  

    Final Occupation by Irrep:
             A1    A2    B1    B2 
    DOCC [     3,    0,    0,    1 ]
    SOCC [     0,    0,    1,    0 ]

  Energy converged.

  @ROHF Final Energy:   -75.70487897822090

   => Energetics <=

    Nuclear Repulsion Energy =              8.7927913517449259
    One-Electron Energy =                -117.6000692953861773
    Two-Electron Energy =                  33.1023989654203490
    Total Energy =                        -75.7048789782209042



Properties will be evaluated at   0.000000,   0.000000,   0.000000 [a0]

Properties computed using the SCF density matrix

  Nuclear Dipole Moment: [e a0]
     X:     0.0000      Y:     0.0000      Z:    -0.9681

  Electronic Dipole Moment: [e a0]
     X:     0.0000      Y:     0.0000      Z:    -0.0031

  Dipole Moment: [e a0]
     X:     0.0000      Y:     0.0000      Z:    -0.9712     Total:     0.9712

  Dipole Moment: [D]
     X:     0.0000      Y:     0.0000      Z:    -2.4686     Total:     2.4686


*** tstop() called on node6 at Sat Nov  5 10:19:18 2022
Module time:
	user time   =       5.04 seconds =       0.08 minutes
	system time =       0.12 seconds =       0.00 minutes
	total time  =          2 seconds =       0.03 minutes
Total time:
	user time   =       5.04 seconds =       0.08 minutes
	system time =       0.12 seconds =       0.00 minutes
	total time  =          2 seconds =       0.03 minutes
   => Loading Basis Set <=

    Name: (AUG-CC-PVTZ-DK AUX)
    Role: DECON
    Keyword: BASIS_RELATIVISTIC
    atoms 1, 3 entry H          line    45 file /home/qc/psi4conda/share/psi4/basis/aug-cc-pvtz-dk.gbs func decontract
    atoms 2    entry O          line   324 file /home/qc/psi4conda/share/psi4/basis/aug-cc-pvtz-dk.gbs func decontract

 MINTS: Wrapper to libmints.
   by Justin Turney

   Calculation information:
      Number of threads:                 4
      Number of atoms:                   3
      Number of AO shells:              32
      Number of SO shells:              23
      Number of primitives:             52
      Number of atomic orbitals:       105
      Number of basis functions:        92

      Number of irreps:                  4
      Integral cutoff                 1.00e-20
      Number of functions per irrep: [  35   12   18   27 ]

 OEINTS: Using relativistic (X2C) overlap, kinetic, and potential integrals.
         ------------------------------------------------------------
         Spin-Free X2C Integrals at the One-Electron Level (SFX2C-1e)
                 by Prakash Verma and Francesco A. Evangelista
         ------------------------------------------------------------

  ==> X2C Options <==

    Computational Basis: AUG-CC-PVTZ-DK
    X2C Basis: (AUG-CC-PVTZ-DK AUX)
    The X2C Hamiltonian will be computed in the X2C Basis

    Comparing only 35 out of 45 elements of H_Dirac

    Comparing only 18 out of 20 elements of H_Dirac

    Comparing only 27 out of 31 elements of H_Dirac

    The 1-norm of |H_X2C - H_Dirac| is: 6.757378164174

    WARNING: The X2C and Dirac Hamiltonians have substatially different eigenvalues!
             This is probably caused by the recontraction of the basis set.

 OEINTS: Overlap, kinetic, potential, dipole, and quadrupole integrals
         stored in file 35.

      Computing two-electron integrals...done
      Computed 2244130 non-zero two-electron integrals.
        Stored in file 33.


*** tstart() called on node6
*** at Sat Nov  5 10:19:19 2022


	Wfn Parameters:
	--------------------
	Wavefunction         = CC3
	Number of irreps     = 4
	Number of MOs        = 92
	Number of active MOs = 91
	AO-Basis             = NONE
	Semicanonical        = true
	Reference            = ROHF changed to UHF for semicanonical orbitals
	Print Level          = 1

	IRREP	# MOs	# FZDC	# DOCC	# SOCC	# VIRT	# FZVR
	-----	-----	------	------	------	------	------
	 A1	   35	    1	    2	    0	    32	    0
	 A2	   12	    0	    0	    0	    12	    0
	 B1	   18	    0	    0	    1	    17	    0
	 B2	   27	    0	    1	    0	    26	    0
	Transforming integrals...
	IWL integrals will be deleted.
	(OO|OO)...
	Presorting SO-basis two-electron integrals.
	Sorting File: SO Ints (nn|nn) nbuckets = 1
	Transforming the one-electron integrals and constructing Fock matrices
	Starting AA/AB first half-transformation.
	Sorting AA/AB half-transformed integrals.
	Starting BB first half-transformation.
	Sorting BB half-transformed integrals.
	First half integral transformation complete.
	Starting AA second half-transformation.
	Starting AB second half-transformation.
	Starting BB second half-transformation.
	Two-electron integral transformation complete.
	(OO|OV)...
	Starting AA second half-transformation.
	Starting AB second half-transformation.
	Starting BB second half-transformation.
	Two-electron integral transformation complete.
	(OO|VV)...
	Starting AA second half-transformation.
	Starting AB second half-transformation.
	Starting BB second half-transformation.
	Two-electron integral transformation complete.
	(OV|OO)...
	Starting AA/AB first half-transformation.
	Sorting AA/AB half-transformed integrals.
	Starting BB first half-transformation.
	Sorting BB half-transformed integrals.
	First half integral transformation complete.
	Starting AA second half-transformation.
	Starting AB second half-transformation.
	Starting BB second half-transformation.
	Two-electron integral transformation complete.
	(OV|OV)...
	Starting AA second half-transformation.
	Starting AB second half-transformation.
	Starting BB second half-transformation.
	Two-electron integral transformation complete.
	(OV|VV)...
	Starting AA second half-transformation.
	Starting AB second half-transformation.
	Starting BB second half-transformation.
	Two-electron integral transformation complete.
	(VV|OO)...
	Starting AA/AB first half-transformation.
	Sorting AA/AB half-transformed integrals.
	Starting BB first half-transformation.
	Sorting BB half-transformed integrals.
	First half integral transformation complete.
	Starting AA second half-transformation.
	Starting AB second half-transformation.
	Starting BB second half-transformation.
	Two-electron integral transformation complete.
	(VV|OV)...
	Starting AA second half-transformation.
	Starting AB second half-transformation.
	Starting BB second half-transformation.
	Two-electron integral transformation complete.
	(VV|VV)...
	Starting AA second half-transformation.
	Starting AB second half-transformation.
	Starting BB second half-transformation.
	Two-electron integral transformation complete.
	Frozen core energy     =    -61.26794936142451

	Size of irrep 0 of <AB|CD> integrals:      1.047 (MW) /      8.372 (MB)
	Size of irrep 1 of <AB|CD> integrals:      0.682 (MW) /      5.458 (MB)
	Size of irrep 2 of <AB|CD> integrals:      0.733 (MW) /      5.862 (MB)
	Size of irrep 3 of <AB|CD> integrals:      1.073 (MW) /      8.586 (MB)
	Total:                                     3.535 (MW) /     28.279 (MB)

	Size of irrep 0 of <ab|cd> integrals:      1.082 (MW) /      8.653 (MB)
	Size of irrep 1 of <ab|cd> integrals:      0.726 (MW) /      5.807 (MB)
	Size of irrep 2 of <ab|cd> integrals:      0.789 (MW) /      6.308 (MB)
	Size of irrep 3 of <ab|cd> integrals:      1.098 (MW) /      8.786 (MB)
	Total:                                     3.694 (MW) /     29.555 (MB)

	Size of irrep 0 of <Ab|Cd> integrals:      4.622 (MW) /     36.980 (MB)
	Size of irrep 1 of <Ab|Cd> integrals:      2.816 (MW) /     22.525 (MB)
	Size of irrep 2 of <Ab|Cd> integrals:      3.042 (MW) /     24.332 (MB)
	Size of irrep 3 of <Ab|Cd> integrals:      4.343 (MW) /     34.744 (MB)
	Total:                                    14.823 (MW) /    118.582 (MB)

	Size of irrep 0 of <IA|BC> integrals:      0.228 (MW) /      1.826 (MB)
	Size of irrep 1 of <IA|BC> integrals:      0.111 (MW) /      0.885 (MB)
	Size of irrep 2 of <IA|BC> integrals:      0.134 (MW) /      1.068 (MB)
	Size of irrep 3 of <IA|BC> integrals:      0.199 (MW) /      1.591 (MB)
	Total:                                     0.671 (MW) /      5.371 (MB)

	Size of irrep 0 of <ia|bc> integrals:      0.195 (MW) /      1.561 (MB)
	Size of irrep 1 of <ia|bc> integrals:      0.072 (MW) /      0.573 (MB)
	Size of irrep 2 of <ia|bc> integrals:      0.085 (MW) /      0.682 (MB)
	Size of irrep 3 of <ia|bc> integrals:      0.176 (MW) /      1.409 (MB)
	Total:                                     0.528 (MW) /      4.224 (MB)

	Size of irrep 0 of <Ia|Bc> integrals:      0.232 (MW) /      1.858 (MB)
	Size of irrep 1 of <Ia|Bc> integrals:      0.114 (MW) /      0.913 (MB)
	Size of irrep 2 of <Ia|Bc> integrals:      0.140 (MW) /      1.116 (MB)
	Size of irrep 3 of <Ia|Bc> integrals:      0.200 (MW) /      1.601 (MB)
	Total:                                     0.686 (MW) /      5.487 (MB)

	Size of irrep 0 of <iA|bC> integrals:      0.194 (MW) /      1.548 (MB)
	Size of irrep 1 of <iA|bC> integrals:      0.069 (MW) /      0.550 (MB)
	Size of irrep 2 of <iA|bC> integrals:      0.080 (MW) /      0.642 (MB)
	Size of irrep 3 of <iA|bC> integrals:      0.175 (MW) /      1.400 (MB)
	Total:                                     0.518 (MW) /      4.141 (MB)

	Size of irrep 0 of tIjAb amplitudes:       0.011 (MW) /      0.086 (MB)
	Size of irrep 1 of tIjAb amplitudes:       0.002 (MW) /      0.013 (MB)
	Size of irrep 2 of tIjAb amplitudes:       0.003 (MW) /      0.028 (MB)
	Size of irrep 3 of tIjAb amplitudes:       0.008 (MW) /      0.067 (MB)
	Total:                                     0.024 (MW) /      0.194 (MB)

	Nuclear Rep. energy          =      8.79279135174493
	SCF energy                   =    -75.70487897822090
	One-electron energy          =    -37.30132373518401
	Two-electron (AA) energy     =      3.70062988898785
	Two-electron (BB) energy     =      1.75288864129775
	Two-electron (AB) energy     =      8.61808423635707
	Two-electron energy          =     14.07160276664267
	Reference energy             =    -75.70487897822093

*** tstop() called on node6 at Sat Nov  5 10:19:22 2022
Module time:
	user time   =       2.54 seconds =       0.04 minutes
	system time =       1.33 seconds =       0.02 minutes
	total time  =          3 seconds =       0.05 minutes
Total time:
	user time   =       9.26 seconds =       0.15 minutes
	system time =       1.53 seconds =       0.03 minutes
	total time  =          6 seconds =       0.10 minutes

*** tstart() called on node6
*** at Sat Nov  5 10:19:22 2022

            **************************
            *                        *
            *        CCENERGY        *
            *                        *
            **************************

    Nuclear Rep. energy (wfn)     =    8.792791351744926
    SCF energy          (wfn)     =  -75.704878978220904
    Reference energy    (file100) =  -75.704878978220933

    Input parameters:
    -----------------
    Wave function   =     CC3
    Reference wfn   =     ROHF changed to UHF for Semicanonical Orbitals
    Brueckner       =     No
    Memory (Mbytes) =     31950.0
    Maxiter         =    500
    R_Convergence   =     1.0e-12
    E_Convergence   =     1.0e-06
    Restart         =     Yes
    DIIS            =     Yes
    AO Basis        =     NONE
    ABCD            =     NEW
    Cache Level     =     0
    Cache Type      =     LRU
    Print Level     =     1
    Num. of threads =     4
    # Amps to Print =     10
    Print MP2 Amps? =     No
    Analyze T2 Amps =     No
    Print Pair Ener =     No
    Local CC        =     No
    T3 Ws incore    =     No
    SCS-MP2         =     False
    SCSN-MP2        =     False
    SCS-CCSD        =     False

MP2 correlation energy -0.2071412931606773
                Solving CC Amplitude Equations
                ------------------------------
  Iter             Energy              RMS        T1Diag      D1Diag    New D1Diag    D2Diag
  ----     ---------------------    ---------   ----------  ----------  ----------   --------
     0        -0.207199527385024    0.000e+00    0.013489    0.000000    0.000000    0.000000
     1        -0.222163737108907    3.331e-02    0.016628    0.000000    0.000000    0.000000
     2        -0.227168214302414    1.212e-02    0.018351    0.000000    0.000000    0.000000
     3        -0.227465430078450    4.100e-03    0.018914    0.000000    0.000000    0.000000
     4        -0.227476181998664    1.779e-03    0.018981    0.000000    0.000000    0.000000
     5        -0.227512286748174    7.385e-04    0.018952    0.000000    0.000000    0.000000
     6        -0.227515798364080    2.435e-04    0.018918    0.000000    0.000000    0.000000
     7        -0.227518036401225    9.275e-05    0.018907    0.000000    0.000000    0.000000
     8        -0.227517873076577    3.234e-05    0.018905    0.000000    0.000000    0.000000
     9        -0.227517837505566    1.084e-05    0.018906    0.000000    0.000000    0.000000
    10        -0.227517956349783    4.005e-06    0.018906    0.000000    0.000000    0.000000
    11        -0.227517893337610    1.356e-06    0.018906    0.000000    0.000000    0.000000
    12        -0.227517875999390    4.068e-07    0.018906    0.000000    0.000000    0.000000
    13        -0.227517865617276    1.121e-07    0.018906    0.000000    0.000000    0.000000
    14        -0.227517865256609    3.376e-08    0.018906    0.000000    0.000000    0.000000
    15        -0.227517865215920    1.287e-08    0.018906    0.000000    0.000000    0.000000
    16        -0.227517865141646    5.800e-09    0.018906    0.000000    0.000000    0.000000
    17        -0.227517865040826    2.606e-09    0.018906    0.000000    0.000000    0.000000
    18        -0.227517864976334    1.080e-09    0.018906    0.000000    0.000000    0.000000
    19        -0.227517864966161    4.345e-10    0.018906    0.000000    0.000000    0.000000
    20        -0.227517864967069    1.520e-10    0.018906    0.000000    0.000000    0.000000
    21        -0.227517864966265    5.242e-11    0.018906    0.000000    0.000000    0.000000
    22        -0.227517864966350    1.842e-11    0.018906    0.000000    0.000000    0.000000
    23        -0.227517864966329    5.567e-12    0.018906    0.000000    0.000000    0.000000
    24        -0.227517864966370    1.850e-12    0.018906    0.000000    0.000000    0.000000
    25        -0.227517864966376    5.327e-13    0.018906    0.000000    0.000000    0.000000

    Iterations converged.


    Largest TIA Amplitudes:
              0  14         0.0096948406
              0   0         0.0088547465
              0   6        -0.0085510263
              0  15         0.0083006071
              0  17        -0.0078898099
              0   5        -0.0078062492
              0   7        -0.0076475897
              0   2        -0.0073235220
              2  44         0.0062229248
              1  17         0.0058056341

    Largest Tia Amplitudes:
              1   1         0.0107595039
              2  63        -0.0106016954
              0   0        -0.0098603125
              0   2         0.0096719008
              2  62        -0.0093294610
              2  66        -0.0087031415
              0  17         0.0082550214
              0   7         0.0081436817
              1   0        -0.0081200084
              1   4        -0.0079065409

    Largest TIJAB Amplitudes:
      2   1  47   9        -0.0084697086
      3   2  65  47         0.0080845178
      3   2  33   6        -0.0079798958
      2   1  51  17         0.0076723580
      3   2  62  47        -0.0071266100
      3   1  65   9         0.0070319517
      3   2  61  47        -0.0069789348
      2   1  46   7        -0.0069653314
      2   1  48   9         0.0066541061
      2   1  44   9        -0.0066437909

    Largest Tijab Amplitudes:
      1   0  47  44        -0.0081497477
      2   0  44  33        -0.0077575667
      1   0  52  44         0.0073930300
      2   1  63   6         0.0071490908
      2   1  66   9         0.0071089372
      2   1  66   6         0.0068446079
      2   1  67   6        -0.0063764105
      2   1  62   9         0.0063472559
      2   1  66   1         0.0061702790
      2   0  44  36        -0.0060832342

    Largest TIjAb Amplitudes:
      3   2  65  66        -0.0192759047
      1   1   9   9        -0.0178655264
      3   2  62  66         0.0175193941
      3   2  65  63        -0.0174130083
      2   0   0  44        -0.0164808281
      3   2  62  63         0.0162775833
      2   0   6  44         0.0161471226
      2   0  14  44        -0.0154497155
      3   2  61  66         0.0154295895
      1   0  51  44         0.0148544913

    SCF energy       (wfn)                    =  -75.704878978220904
    Reference energy (file100)                =  -75.704878978220933

    Opposite-spin MP2 correlation energy      =   -0.158138293588795
    Same-spin MP2 correlation energy          =   -0.045399547891117
    MP2 correlation energy                    =   -0.207141293160677
      * MP2 total energy                      =  -75.912020271381607
    CC3 correlation energy                    =   -0.227517864966376
      * CC3 total energy                      =  -75.932396843187306


*** tstop() called on node6 at Sat Nov  5 10:21:47 2022
Module time:
	user time   =     527.59 seconds =       8.79 minutes
	system time =      43.83 seconds =       0.73 minutes
	total time  =        145 seconds =       2.42 minutes
Total time:
	user time   =     536.86 seconds =       8.95 minutes
	system time =      45.36 seconds =       0.76 minutes
	total time  =        151 seconds =       2.52 minutes

*** tstart() called on node6
*** at Sat Nov  5 10:21:47 2022


			**************************
			*                        *
			*         CCHBAR         *
			*                        *
			**************************

Dots of (HeT1)c in names "CC3 Wxxx" in CC3_HET1 
Wamef terms
	<WAMEF|WAMEF> =   13.2955474491
	<Wamef|Wamef> =   10.8487012221
	<WAmEf|WAmEf> =    9.3118592605
	<WaMeF|WaMeF> =   12.6543529205
Wmnie terms
	<WMNIE (M>N,IE)|WMNIE> =    0.7439183226
	<Wmnie (m>n,ie)|Wmnie> =    0.3276552686
	<WMnIe (Mn,Ie)|WMnIe> =    0.7250885275
	<WmNiE (mN,iE)|WmNiE> =    0.6135204240
	<WMNIE(M>N,EI)|WMNIE(M>N,EI)> =    0.7439183226
	<Wmnie(m>n,ei)|Wmnie(m>n,ei)> =    0.3276552686
	<WMnIe(Mn,eI)|WMnIe(Mn,eI)> =    0.7250885275
	<WmNiE(mN,Ei)|WmNiE(mN,Ei)> =    0.6135204240
Doing Wmnij terms.
	<WMNIJ (M>N,I>J)|WMNIJ> =    9.2268092506
	<Wmnij (m>n,i>j)|Wmnij> =    4.0460844528
	<WMnIj (Mn,Ij)|WMnIj> =    6.3901269811
Doing Wmbij terms.
	<WMBIJ (MB,I>J)|WMBIJ> =    0.7492681957
	<WMBIJ (I>J,MB)|WMBIJ> =    0.7492681957
	<Wmbij (mb,i>j)|Wmbij> =    0.3334633008
	<Wmbij (i>j,mb)|Wmbij> =    0.3334633008
	<WMbIj (Mb,Ij)|WMbIj> =    0.7285314697
	<WMbIj (Ij,Mb)|WMbIj> =    0.7285314697
	<WmBiJ (mB,iJ)|WmBiJ> =    0.6168848754
	<WmBiJ (iJ,mB)|WmBiJ> =    0.6168848754
Doing Wmbej terms.
	<WMBEJ (all ME,JB)|WMBEJ> =   81.8712642496
	<Wmbej|Wmbej> =   61.9719091482
	<WMbEj|WMbEj> =    1.0297649558
	<WmBeJ|WmBeJ> =    1.0392689089
	<WMbeJ|WMbeJ> =   94.8960083578
	<WmBEj|WmBEj> =   67.9606483485
Doing Wabei terms.
	<WABEI (IE,B>A) |WABEI> =   13.3494114826
	<Wabei (ie,b>a)|Wabei> =   10.9473713505
	<WAbEi (iE,bA)|WAbEi> =    9.3867787019
	<WAbEi (iE,Ba)|WAbEi> =   12.6895701924

*** tstop() called on node6 at Sat Nov  5 10:21:48 2022
Module time:
	user time   =       3.71 seconds =       0.06 minutes
	system time =       0.67 seconds =       0.01 minutes
	total time  =          1 seconds =       0.02 minutes
Total time:
	user time   =     540.57 seconds =       9.01 minutes
	system time =      46.03 seconds =       0.77 minutes
	total time  =        152 seconds =       2.53 minutes

*** tstart() called on node6
*** at Sat Nov  5 10:21:48 2022


	**********************************************************
	*  CCEOM: An Equation of Motion Coupled Cluster Program  *
	**********************************************************

	Nuclear Rep. energy (wfn)     =    8.792791351744926
	SCF energy          (wfn)     =  -75.704878978220904
	Reference energy    (file100) =  -75.704878978220933
	CC3 energy          (file100) =   -0.227517864966376

	Input parameters:
	-----------------
	Reference wfn   = ROHF changed to UHF for Semicanonical Orbitals
	Reference EOM wfn=     UHF
	Memory (Mbytes) =  31950.0
	ABCD            =     NEW
	Cache Level     =    0
	Cache Type      =     LRU
	T3 Ws incore  =      No
	Num. of threads =     4
	Local CC        =     No


	CCEOM parameters:
	-----------------
	States sought per irrep     = A1 0, A2 0, B1 1, B2 0,
	Max. number of iterations   =   500
	Vectors stored per root     =    12
	Print HbarSS iterations?    =     0
	Excitation range for HBarSS =     2
	Eigenvalue tolerance        = 1.0e-06
	Eigenvalue toleranceSS      = 1.0e-06
	Residual vector tolerance   = 1.0e-08
	Residual vector toleranceSS = 1.0e-06
	Complex tolerance           = 1.0e-12
	Root for properties         =     1
	Sym of state for properties =     A1
	Guess vectors taken from    = SINGLES
	Restart EOM CC3             = NO
	Collapse with last vector   = YES


Symmetry of ground state: B1
Symmetry of excited state: B1
Symmetry of right eigenvector: A1
Obtaining initial guess from singles-singles block of Hbar...Done.

Iter=1    L=1     Root    EOM Energy     Delta E   Res. Norm    Conv?
                     1   0.5793784756   5.79e-01    5.14e-01      N
Iter=2    L=2     Root    EOM Energy     Delta E   Res. Norm    Conv?
                     1   0.4878230744  -9.16e-02    9.71e-02      N
Iter=3    L=3     Root    EOM Energy     Delta E   Res. Norm    Conv?
                     1   0.4816373704  -6.19e-03    6.35e-02      N
Iter=4    L=4     Root    EOM Energy     Delta E   Res. Norm    Conv?
                     1   0.4784225306  -3.21e-03    4.62e-02      N
Iter=5    L=5     Root    EOM Energy     Delta E   Res. Norm    Conv?
                     1   0.4772053578  -1.22e-03    2.70e-02      N
Iter=6    L=6     Root    EOM Energy     Delta E   Res. Norm    Conv?
                     1   0.4767749460  -4.30e-04    1.35e-02      N
Iter=7    L=7     Root    EOM Energy     Delta E   Res. Norm    Conv?
                     1   0.4766386086  -1.36e-04    8.69e-03      N
Iter=8    L=8     Root    EOM Energy     Delta E   Res. Norm    Conv?
                     1   0.4765636042  -7.50e-05    6.27e-03      N
Iter=9    L=9     Root    EOM Energy     Delta E   Res. Norm    Conv?
                     1   0.4765271208  -3.65e-05    3.86e-03      N
Iter=10   L=10    Root    EOM Energy     Delta E   Res. Norm    Conv?
                     1   0.4765160512  -1.11e-05    2.94e-03      N
Iter=11   L=11    Root    EOM Energy     Delta E   Res. Norm    Conv?
                     1   0.4765062534  -9.80e-06    2.39e-03      N
Iter=12   L=12    Root    EOM Energy     Delta E   Res. Norm    Conv?
                     1   0.4765026115  -3.64e-06    1.39e-03      N
Iter=13   L=2     Root    EOM Energy     Delta E   Res. Norm    Conv?
                     1   0.4765026115  -5.55e-17    1.39e-03      N
Iter=14   L=3     Root    EOM Energy     Delta E   Res. Norm    Conv?
                     1   0.4765018500  -7.62e-07    6.75e-04      N
Iter=15   L=4     Root    EOM Energy     Delta E   Res. Norm    Conv?
                     1   0.4765021132   2.63e-07    3.98e-04      N
Iter=16   L=5     Root    EOM Energy     Delta E   Res. Norm    Conv?
                     1   0.4765014081  -7.05e-07    2.28e-04      N
Iter=17   L=6     Root    EOM Energy     Delta E   Res. Norm    Conv?
                     1   0.4765009942  -4.14e-07    9.82e-05      N
Iter=18   L=7     Root    EOM Energy     Delta E   Res. Norm    Conv?
                     1   0.4765010911   9.70e-08    3.80e-05      N
Iter=19   L=8     Root    EOM Energy     Delta E   Res. Norm    Conv?
                     1   0.4765010456  -4.56e-08    1.51e-05      N
Iter=20   L=9     Root    EOM Energy     Delta E   Res. Norm    Conv?
                     1   0.4765010400  -5.54e-09    6.82e-06      N
Iter=21   L=10    Root    EOM Energy     Delta E   Res. Norm    Conv?
                     1   0.4765010377  -2.33e-09    2.79e-06      N
Iter=22   L=11    Root    EOM Energy     Delta E   Res. Norm    Conv?
                     1   0.4765010403   2.60e-09    1.04e-06      N
Iter=23   L=12    Root    EOM Energy     Delta E   Res. Norm    Conv?
                     1   0.4765010442   3.89e-09    4.55e-07      N
Iter=24   L=2     Root    EOM Energy     Delta E   Res. Norm    Conv?
                     1   0.4765010442   2.25e-13    4.55e-07      N
Iter=25   L=3     Root    EOM Energy     Delta E   Res. Norm    Conv?
                     1   0.4765010448   6.17e-10    3.10e-07      N
Iter=26   L=4     Root    EOM Energy     Delta E   Res. Norm    Conv?
                     1   0.4765010451   3.26e-10    2.24e-07      N
Iter=27   L=5     Root    EOM Energy     Delta E   Res. Norm    Conv?
                     1   0.4765010458   7.05e-10    1.44e-07      N
Iter=28   L=6     Root    EOM Energy     Delta E   Res. Norm    Conv?
                     1   0.4765010461   2.21e-10    8.98e-08      N
Iter=29   L=7     Root    EOM Energy     Delta E   Res. Norm    Conv?
                     1   0.4765010463   2.05e-10    5.87e-08      N
Iter=30   L=8     Root    EOM Energy     Delta E   Res. Norm    Conv?
                     1   0.4765010463   1.15e-11    4.10e-08      N
Iter=31   L=9     Root    EOM Energy     Delta E   Res. Norm    Conv?
                     1   0.4765010463  -1.84e-11    2.55e-08      N
Iter=32   L=10    Root    EOM Energy     Delta E   Res. Norm    Conv?
                     1   0.4765010463   3.33e-12    1.50e-08      N
Iter=33   L=11    Root    EOM Energy     Delta E   Res. Norm    Conv?
                     1   0.4765010462  -2.95e-11    9.71e-09      Y
Completed EOM_CCSD
Collapsing to only 1 vector(s).
Copying root 1 to CC3_MISC file.
Setting initial CC3 eigenvalue to    0.4765010462
Iter=1    L=1     Root    EOM Energy     Delta E   Res. Norm    Conv?
                     1   0.4712195159  -5.28e-03    4.36e-02      N
Iter=2    L=2     Root    EOM Energy     Delta E   Res. Norm    Conv?
                     1   0.4696693452  -1.55e-03    2.70e-02      N
Iter=3    L=3     Root    EOM Energy     Delta E   Res. Norm    Conv?
                     1   0.4682230629  -1.45e-03    4.25e-02      N
Iter=4    L=4     Root    EOM Energy     Delta E   Res. Norm    Conv?
                     1   0.4664058896  -1.82e-03    2.51e-02      N
Iter=5    L=5     Root    EOM Energy     Delta E   Res. Norm    Conv?
                     1   0.4660107731  -3.95e-04    1.30e-02      N
Iter=6    L=6     Root    EOM Energy     Delta E   Res. Norm    Conv?
                     1   0.4658793539  -1.31e-04    1.24e-02      N
Iter=7    L=7     Root    EOM Energy     Delta E   Res. Norm    Conv?
                     1   0.4657302131  -1.49e-04    9.40e-03      N
Iter=8    L=8     Root    EOM Energy     Delta E   Res. Norm    Conv?
                     1   0.4656471593  -8.31e-05    5.32e-03      N
Iter=9    L=9     Root    EOM Energy     Delta E   Res. Norm    Conv?
                     1   0.4656415056  -5.65e-06    2.37e-03      N
Iter=10   L=10    Root    EOM Energy     Delta E   Res. Norm    Conv?
                     1   0.4656404984  -1.01e-06    1.18e-03      N
Collapsing to 2 vector(s).
Change in CC3 energy from last iterated value   -0.0108605478
Iter=11   L=2     Root    EOM Energy     Delta E   Res. Norm    Conv?
                     1   0.4656681363   2.76e-05    1.18e-03      N
Iter=12   L=3     Root    EOM Energy     Delta E   Res. Norm    Conv?
                     1   0.4656659648  -2.17e-06    7.75e-04      N
Iter=13   L=4     Root    EOM Energy     Delta E   Res. Norm    Conv?
                     1   0.4656657216  -2.43e-07    4.87e-04      N
Iter=14   L=5     Root    EOM Energy     Delta E   Res. Norm    Conv?
                     1   0.4656661118   3.90e-07    2.27e-04      N
Iter=15   L=6     Root    EOM Energy     Delta E   Res. Norm    Conv?
                     1   0.4656654816  -6.30e-07    1.20e-04      N
Iter=16   L=7     Root    EOM Energy     Delta E   Res. Norm    Conv?
                     1   0.4656654662  -1.54e-08    7.41e-05      N
Iter=17   L=8     Root    EOM Energy     Delta E   Res. Norm    Conv?
                     1   0.4656657692   3.03e-07    5.40e-05      N
Iter=18   L=9     Root    EOM Energy     Delta E   Res. Norm    Conv?
                     1   0.4656658324   6.32e-08    4.61e-05      N
Iter=19   L=10    Root    EOM Energy     Delta E   Res. Norm    Conv?
                     1   0.4656658074  -2.51e-08    3.35e-05      N
Collapsing to 2 vector(s).
Change in CC3 energy from last iterated value    0.0000253090
Iter=20   L=2     Root    EOM Energy     Delta E   Res. Norm    Conv?
                     1   0.4656657119  -9.55e-08    3.31e-05      N
Iter=21   L=3     Root    EOM Energy     Delta E   Res. Norm    Conv?
                     1   0.4656657444   3.25e-08    1.83e-05      N
Iter=22   L=4     Root    EOM Energy     Delta E   Res. Norm    Conv?
                     1   0.4656657630   1.86e-08    9.93e-06      N
Iter=23   L=5     Root    EOM Energy     Delta E   Res. Norm    Conv?
                     1   0.4656657738   1.07e-08    4.59e-06      N
Iter=24   L=6     Root    EOM Energy     Delta E   Res. Norm    Conv?
                     1   0.4656657753   1.54e-09    1.96e-06      N
Iter=25   L=7     Root    EOM Energy     Delta E   Res. Norm    Conv?
                     1   0.4656657747  -6.11e-10    9.88e-07      N
Iter=26   L=8     Root    EOM Energy     Delta E   Res. Norm    Conv?
                     1   0.4656657733  -1.35e-09    4.91e-07      N
Iter=27   L=9     Root    EOM Energy     Delta E   Res. Norm    Conv?
                     1   0.4656657734   4.65e-11    2.59e-07      N
Iter=28   L=10    Root    EOM Energy     Delta E   Res. Norm    Conv?
                     1   0.4656657735   1.16e-10    1.79e-07      N
Collapsing to 2 vector(s).
Change in CC3 energy from last iterated value   -0.0000000339
Iter=29   L=2     Root    EOM Energy     Delta E   Res. Norm    Conv?
                     1   0.4656657736   1.28e-10    1.79e-07      N
Iter=30   L=3     Root    EOM Energy     Delta E   Res. Norm    Conv?
                     1   0.4656657736  -3.87e-11    1.13e-07      N
Iter=31   L=4     Root    EOM Energy     Delta E   Res. Norm    Conv?
                     1   0.4656657736   6.29e-13    6.05e-08      N
Iter=32   L=5     Root    EOM Energy     Delta E   Res. Norm    Conv?
                     1   0.4656657736   1.21e-11    2.59e-08      N
Iter=33   L=6     Root    EOM Energy     Delta E   Res. Norm    Conv?
                     1   0.4656657736   4.16e-13    1.15e-08      N
Iter=34   L=7     Root    EOM Energy     Delta E   Res. Norm    Conv?
                     1   0.4656657736   4.73e-12    5.47e-09      Y
Collapsing to only 1 vector(s).
Change in CC3 energy from last iterated value    0.0000000001

Procedure converged for 1 root(s).
Energy written to CC_INFO:Etot  -75.4667310696
States per irrep written to CC_INFO.
<R|R> =   0.9999999999999998
EOM CC3 R0 for root 0 =   0.00400769940

Final Energetic Summary for Converged Roots of Irrep B1
                     Excitation Energy              Total Energy
                (eV)     (cm^-1)     (au)             (au)
EOM State 1     12.671   102201.8   0.4656657736   -75.466731069577

Largest components of excited wave function #1:
 RIA (libdpd indices) : (cscf notation)
         1 >   0      :       3a1 >    4a1 :   -0.4933212219
         1 >   2      :       3a1 >    6a1 :    0.1728944773
         1 >   5      :       3a1 >    9a1 :    0.1362575188
         1 >   1      :       3a1 >    5a1 :    0.1271221469
         1 >   4      :       3a1 >    8a1 :   -0.0514023911
 Ria (libdpd indices) : (cscf notation)
         1 >   0      :       3a1 >    4a1 :    0.5834063440
         1 >   2      :       3a1 >    6a1 :   -0.2320916288
         1 >   5      :       3a1 >    9a1 :   -0.1710361070
         1 >   1      :       3a1 >    5a1 :   -0.1394886307
         1 >   4      :       3a1 >    8a1 :    0.0587603124
 RIjAb (libdpd indices)     : (cscf notation)
        0   1 >   0   0     :    1b1    3a1 >    4a1    1b1 :   -0.3350448035
        0   1 >   2   0     :    1b1    3a1 >    6a1    1b1 :    0.1176503478
        0   1 >   0   1     :    1b1    3a1 >    4a1    2b1 :    0.0957817007
        0   1 >   5   0     :    1b1    3a1 >    9a1    1b1 :    0.0931030856
        0   1 >   1   0     :    1b1    3a1 >    5a1    1b1 :    0.0841407780
 RIJAB (libdpd indices)     : (cscf notation)
        0   1 >   3   0     :    1b1    3a1 >    5b1    4a1 :    0.0200415922
        0   1 >   0   0     :    1b1    3a1 >    2b1    4a1 :    0.0193911533
        0   1 >   4   0     :    1b2    3a1 >    6b2    4a1 :   -0.0191125757
        0   1 >   1   0     :    1b2    3a1 >    3b2    4a1 :    0.0183936629
        0   1 >   0   0     :    1b2    3a1 >    2b2    4a1 :    0.0170253666
 Rijab (libdpd indices)     : (cscf notation)
        0   1 >   4   0     :    1b2    3a1 >    6b2    4a1 :    0.0241368896
        0   1 >   1   0     :    1b2    3a1 >    3b2    4a1 :    0.0234692623
        0   1 >   0   0     :    1b2    3a1 >    2b2    4a1 :    0.0205422770
        0   1 >   8   0     :    1b2    3a1 >   10b2    4a1 :    0.0135276443
        1   0 >   5   0     :    3a1    2a1 >    9a1    4a1 :    0.0096478067

	Putting into environment energy for root of R irrep 1 and root 1.
	Putting into environment CURRENT ENERGY:              -75.4667310696

	Total # of sigma evaluations: 68

*** tstop() called on node6 at Sat Nov  5 10:30:01 2022
Module time:
	user time   =    1839.29 seconds =      30.65 minutes
	system time =     130.33 seconds =       2.17 minutes
	total time  =        493 seconds =       8.22 minutes
Total time:
	user time   =    2379.86 seconds =      39.66 minutes
	system time =     176.36 seconds =       2.94 minutes
	total time  =        645 seconds =      10.75 minutes

    Psi4 stopped on: Saturday, 05 November 2022 10:30AM
    Psi4 wall time for execution: 0:10:44.38

*** Psi4 exiting successfully. Buy a developer a beer!
