
    -----------------------------------------------------------------------
          Psi4: An Open-Source Ab Initio Electronic Structure Package
                               Psi4 1.2 release

                         Git: Rev {HEAD} 9d4a61c 


    R. M. Parrish, L. A. Burns, D. G. A. Smith, A. C. Simmonett,
    A. E. DePrince III, E. G. Hohenstein, U. Bozkaya, A. Yu. Sokolov,
    R. Di Remigio, R. M. Richard, J. F. Gonthier, A. M. James,
    H. R. McAlexander, A. Kumar, M. Saitow, X. Wang, B. P. Pritchard,
    P. Verma, H. F. Schaefer III, K. Patkowski, R. A. King, E. F. Valeev,
    F. A. Evangelista, J. M. Turney, T. D. Crawford, and C. D. Sherrill,
    J. Chem. Theory Comput. 13(7) pp 3185--3197 (2017).
    (doi: 10.1021/acs.jctc.7b00174)


                         Additional Contributions by
    P. Kraus, H. Kruse, M. H. Lechner, M. C. Schieber, and R. A. Shaw

    -----------------------------------------------------------------------


    Psi4 started on: Saturday, 05 November 2022 10:19AM

    Process ID: 8392
    Host:       node5
    PSIDATADIR: /home/qc/psi4conda/share/psi4
    Memory:     500.0 MiB
    Threads:    4
    
  ==> Input File <==

--------------------------------------------------------------------------
#h2o SPECIAL eom-cc3
memory 31950 mb

molecule h2o{
1 2
H        0.0000000000       -1.5234918431       -0.9666124809
O        0.0000000000        0.0000000000        0.1169607719
H        0.0000000000        1.5234918431       -0.9666124809

units bohr
}
 
set globals {
 reference rohf
 basis aug-cc-pvtz-dk
 freeze_core true
 cachelevel=0
 relativistic x2c
 maxiter=500
 dertype none
 ints_tolerance 20
 roots_per_irrep = [0,0,1,0]
}

set scf d_convergence 12
set ccenergy r_convergence 12
set cceom r_convergence 8

energy('eom-cc3')--------------------------------------------------------------------------

  Memory set to  29.756 GiB by Python driver.

*** tstart() called on node5
*** at Sat Nov  5 10:19:31 2022

   => Loading Basis Set <=

    Name: AUG-CC-PVTZ-DK
    Role: ORBITAL
    Keyword: BASIS
    atoms 1, 3 entry H          line    45 file /home/qc/psi4conda/share/psi4/basis/aug-cc-pvtz-dk.gbs 
    atoms 2    entry O          line   324 file /home/qc/psi4conda/share/psi4/basis/aug-cc-pvtz-dk.gbs 


         ---------------------------------------------------------
                                   SCF
            by Justin Turney, Rob Parrish, Andy Simmonett
                             and Daniel Smith
                             ROHF Reference
                        4 Threads,  30469 MiB Core
         ---------------------------------------------------------

  ==> Geometry <==

    Molecular point group: c2v
    Full point group: C2v

    Geometry (in Bohr), charge = 1, multiplicity = 2:

       Center              X                  Y                   Z               Mass       
    ------------   -----------------  -----------------  -----------------  -----------------
         H            0.000000000000    -1.523491843100    -0.962305289532     1.007825032070
         O            0.000000000000     0.000000000000     0.121267963268    15.994914619560
         H           -0.000000000000     1.523491843100    -0.962305289532     1.007825032070

  Running in c2v symmetry.

  Rotational constants: A =     28.64230  B =     12.86764  C =      8.87881 [cm^-1]
  Rotational constants: A = 858674.66226  B = 385762.07631  C = 266179.95943 [MHz]
  Nuclear repulsion =    8.886474619148530

  Charge       = 1
  Multiplicity = 2
  Electrons    = 9
  Nalpha       = 5
  Nbeta        = 4

  ==> Algorithm <==

  SCF Algorithm Type is PK.
  DIIS enabled.
  MOM disabled.
  Fractional occupation disabled.
  Guess Type is GWH.
  Energy threshold   = 1.00e-08
  Density threshold  = 1.00e-12
  Integral threshold = 1.00e-20

  ==> Primary Basis <==

  Basis Set: AUG-CC-PVTZ-DK
    Blend: AUG-CC-PVTZ-DK
    Number of shells: 32
    Number of basis function: 92
    Number of Cartesian functions: 105
    Spherical Harmonics?: true
    Max angular momentum: 3

   => Loading Basis Set <=

    Name: (AUG-CC-PVTZ-DK AUX)
    Role: DECON
    Keyword: BASIS_RELATIVISTIC
    atoms 1, 3 entry H          line    45 file /home/qc/psi4conda/share/psi4/basis/aug-cc-pvtz-dk.gbs func decontract
    atoms 2    entry O          line   324 file /home/qc/psi4conda/share/psi4/basis/aug-cc-pvtz-dk.gbs func decontract

  ==> Pre-Iterations <==

   -------------------------------------------------------
    Irrep   Nso     Nmo     Nalpha   Nbeta   Ndocc  Nsocc
   -------------------------------------------------------
     A1        35      35       0       0       0       0
     A2        12      12       0       0       0       0
     B1        18      18       0       0       0       0
     B2        27      27       0       0       0       0
   -------------------------------------------------------
    Total      92      92       5       4       4       1
   -------------------------------------------------------

 OEINTS: Using relativistic (X2C) overlap, kinetic, and potential integrals.
         ------------------------------------------------------------
         Spin-Free X2C Integrals at the One-Electron Level (SFX2C-1e)
                 by Prakash Verma and Francesco A. Evangelista
         ------------------------------------------------------------

  ==> X2C Options <==

    Computational Basis: AUG-CC-PVTZ-DK
    X2C Basis: (AUG-CC-PVTZ-DK AUX)
    The X2C Hamiltonian will be computed in the X2C Basis

    Comparing only 35 out of 45 elements of H_Dirac

    Comparing only 18 out of 20 elements of H_Dirac

    Comparing only 27 out of 31 elements of H_Dirac

    The 1-norm of |H_X2C - H_Dirac| is: 6.986130076220

    WARNING: The X2C and Dirac Hamiltonians have substatially different eigenvalues!
             This is probably caused by the recontraction of the basis set.

  ==> Integral Setup <==

  Using in-core PK algorithm.
   Calculation information:
      Number of atoms:                   3
      Number of AO shells:              32
      Number of primitives:             52
      Number of atomic orbitals:       105
      Number of basis functions:        92

      Integral cutoff                 1.00e-20
      Number of threads:                 4

  Performing in-core PK
  Using 18305562 doubles for integral storage.
  We computed 171364 shell quartets total.
  Whereas there are 139656 unique shell quartets.
    22.70 percent of shell quartets recomputed by reordering.

  ==> DiskJK: Disk-Based J/K Matrices <==

    J tasked:                  Yes
    K tasked:                  Yes
    wK tasked:                  No
    Memory (MB):             22852
    Schwarz Cutoff:          1E-20

    OpenMP threads:              4

  Minimum eigenvalue in the overlap matrix is 4.0183336662E-04.
  Using Symmetric Orthogonalization.

  SCF Guess: Generalized Wolfsberg-Helmholtz.

  ==> Iterations <==

                        Total Energy        Delta E     RMS |[F,P]|

   @ROHF iter   1:   -69.31005842571999   -6.93101e+01   9.62022e-02 
   @ROHF iter   2:   -75.57727726160427   -6.26722e+00   1.13466e-02 DIIS
   @ROHF iter   3:   -75.69195499451675   -1.14678e-01   2.87389e-03 DIIS
   @ROHF iter   4:   -75.70332566939977   -1.13707e-02   1.04411e-03 DIIS
   @ROHF iter   5:   -75.70521085780618   -1.88519e-03   3.53890e-04 DIIS
   @ROHF iter   6:   -75.70537497760965   -1.64120e-04   6.13669e-05 DIIS
   @ROHF iter   7:   -75.70538356428158   -8.58667e-06   1.09239e-05 DIIS
   @ROHF iter   8:   -75.70538379559241   -2.31311e-07   1.28508e-06 DIIS
   @ROHF iter   9:   -75.70538379963511   -4.04270e-09   2.33421e-07 DIIS
   @ROHF iter  10:   -75.70538379971127   -7.61560e-11   3.75385e-08 DIIS
   @ROHF iter  11:   -75.70538379971306   -1.79057e-12   5.73208e-09 DIIS
   @ROHF iter  12:   -75.70538379971322   -1.56319e-13   1.00988e-09 DIIS
   @ROHF iter  13:   -75.70538379971315    7.10543e-14   2.22383e-10 DIIS
   @ROHF iter  14:   -75.70538379971329   -1.42109e-13   4.12509e-11 DIIS
   @ROHF iter  15:   -75.70538379971319    9.94760e-14   5.59016e-12 DIIS
   @ROHF iter  16:   -75.70538379971323   -4.26326e-14   8.36468e-13 DIIS

  ==> Post-Iterations <==

    Orbital Energies [Eh]
    ---------------------

    Doubly Occupied:                                                      

       1A1   -21.119447     2A1    -1.807925     1B2    -1.182620  
       3A1    -1.052286  

    Singly Occupied:                                                      

       1B1    -0.688916  

    Virtual:                                                              

       4A1    -0.180066     2B2    -0.115798     5A1    -0.060957  
       2B1    -0.058029     6A1    -0.040952     3B2    -0.025675  
       4B2     0.010310     7A1     0.018115     1A2     0.036719  
       3B1     0.069689     8A1     0.072567     5B2     0.163239  
       9A1     0.179877     6B2     0.196947     7B2     0.322161  
      10A1     0.348047    11A1     0.408252     4B1     0.422114  
       2A2     0.422474    12A1     0.519170     5B1     0.553875  
      13A1     0.580311     8B2     0.599261     6B1     0.606164  
       3A2     0.624270     9B2     0.660987    14A1     0.667385  
      15A1     0.729317    10B2     0.744047     7B1     0.749210  
      11B2     0.830273    16A1     0.865430     4A2     0.874325  
      12B2     0.960471     5A2     1.166295     8B1     1.227978  
      17A1     1.239849    13B2     1.420133    18A1     1.436458  
      14B2     1.591992    19A1     1.693295     9B1     1.832890  
       6A2     1.900383    20A1     1.944575    21A1     1.981541  
      10B1     2.005253    15B2     2.051447    22A1     2.084874  
      11B1     2.302502    16B2     2.313358    23A1     2.324614  
       7A2     2.456545    17B2     2.487062    18B2     3.180731  
      24A1     3.320094     8A2     3.579868    12B1     3.594158  
      25A1     3.784353    19B2     3.785307    13B1     3.910043  
      14B1     3.967035     9A2     3.972003    20B2     4.056622  
      26A1     4.063905    27A1     4.220730    21B2     4.301433  
      22B2     4.634302    10A2     4.658382    28A1     4.767749  
      23B2     4.845869    15B1     4.949330    29A1     5.241971  
      30A1     5.616092    24B2     6.057215    16B1     6.204406  
      31A1     6.304072    17B1     6.612415    18B1     6.710438  
      11A2     6.735651    32A1     6.774970    12A2     6.848143  
      25B2     6.856037    33A1     6.992807    26B2     7.329205  
      34A1     7.421786    27B2     8.137859    35A1    14.401831  

    Final Occupation by Irrep:
             A1    A2    B1    B2 
    DOCC [     3,    0,    0,    1 ]
    SOCC [     0,    0,    1,    0 ]

  Energy converged.

  @ROHF Final Energy:   -75.70538379971323

   => Energetics <=

    Nuclear Repulsion Energy =              8.8864746191485295
    One-Electron Energy =                -117.7482484451556388
    Two-Electron Energy =                  33.1563900262938702
    Total Energy =                        -75.7053837997132462



Properties will be evaluated at   0.000000,   0.000000,   0.000000 [a0]

Properties computed using the SCF density matrix

  Nuclear Dipole Moment: [e a0]
     X:     0.0000      Y:     0.0000      Z:    -0.9545

  Electronic Dipole Moment: [e a0]
     X:     0.0000      Y:     0.0000      Z:    -0.0029

  Dipole Moment: [e a0]
     X:     0.0000      Y:     0.0000      Z:    -0.9574     Total:     0.9574

  Dipole Moment: [D]
     X:     0.0000      Y:     0.0000      Z:    -2.4335     Total:     2.4335


*** tstop() called on node5 at Sat Nov  5 10:19:32 2022
Module time:
	user time   =       4.96 seconds =       0.08 minutes
	system time =       0.18 seconds =       0.00 minutes
	total time  =          1 seconds =       0.02 minutes
Total time:
	user time   =       4.96 seconds =       0.08 minutes
	system time =       0.18 seconds =       0.00 minutes
	total time  =          1 seconds =       0.02 minutes
   => Loading Basis Set <=

    Name: (AUG-CC-PVTZ-DK AUX)
    Role: DECON
    Keyword: BASIS_RELATIVISTIC
    atoms 1, 3 entry H          line    45 file /home/qc/psi4conda/share/psi4/basis/aug-cc-pvtz-dk.gbs func decontract
    atoms 2    entry O          line   324 file /home/qc/psi4conda/share/psi4/basis/aug-cc-pvtz-dk.gbs func decontract

 MINTS: Wrapper to libmints.
   by Justin Turney

   Calculation information:
      Number of threads:                 4
      Number of atoms:                   3
      Number of AO shells:              32
      Number of SO shells:              23
      Number of primitives:             52
      Number of atomic orbitals:       105
      Number of basis functions:        92

      Number of irreps:                  4
      Integral cutoff                 1.00e-20
      Number of functions per irrep: [  35   12   18   27 ]

 OEINTS: Using relativistic (X2C) overlap, kinetic, and potential integrals.
         ------------------------------------------------------------
         Spin-Free X2C Integrals at the One-Electron Level (SFX2C-1e)
                 by Prakash Verma and Francesco A. Evangelista
         ------------------------------------------------------------

  ==> X2C Options <==

    Computational Basis: AUG-CC-PVTZ-DK
    X2C Basis: (AUG-CC-PVTZ-DK AUX)
    The X2C Hamiltonian will be computed in the X2C Basis

    Comparing only 35 out of 45 elements of H_Dirac

    Comparing only 18 out of 20 elements of H_Dirac

    Comparing only 27 out of 31 elements of H_Dirac

    The 1-norm of |H_X2C - H_Dirac| is: 6.986130076220

    WARNING: The X2C and Dirac Hamiltonians have substatially different eigenvalues!
             This is probably caused by the recontraction of the basis set.

 OEINTS: Overlap, kinetic, potential, dipole, and quadrupole integrals
         stored in file 35.

      Computing two-electron integrals...done
      Computed 2241536 non-zero two-electron integrals.
        Stored in file 33.


*** tstart() called on node5
*** at Sat Nov  5 10:19:33 2022


	Wfn Parameters:
	--------------------
	Wavefunction         = CC3
	Number of irreps     = 4
	Number of MOs        = 92
	Number of active MOs = 91
	AO-Basis             = NONE
	Semicanonical        = true
	Reference            = ROHF changed to UHF for semicanonical orbitals
	Print Level          = 1

	IRREP	# MOs	# FZDC	# DOCC	# SOCC	# VIRT	# FZVR
	-----	-----	------	------	------	------	------
	 A1	   35	    1	    2	    0	    32	    0
	 A2	   12	    0	    0	    0	    12	    0
	 B1	   18	    0	    0	    1	    17	    0
	 B2	   27	    0	    1	    0	    26	    0
	Transforming integrals...
	IWL integrals will be deleted.
	(OO|OO)...
	Presorting SO-basis two-electron integrals.
	Sorting File: SO Ints (nn|nn) nbuckets = 1
	Transforming the one-electron integrals and constructing Fock matrices
	Starting AA/AB first half-transformation.
	Sorting AA/AB half-transformed integrals.
	Starting BB first half-transformation.
	Sorting BB half-transformed integrals.
	First half integral transformation complete.
	Starting AA second half-transformation.
	Starting AB second half-transformation.
	Starting BB second half-transformation.
	Two-electron integral transformation complete.
	(OO|OV)...
	Starting AA second half-transformation.
	Starting AB second half-transformation.
	Starting BB second half-transformation.
	Two-electron integral transformation complete.
	(OO|VV)...
	Starting AA second half-transformation.
	Starting AB second half-transformation.
	Starting BB second half-transformation.
	Two-electron integral transformation complete.
	(OV|OO)...
	Starting AA/AB first half-transformation.
	Sorting AA/AB half-transformed integrals.
	Starting BB first half-transformation.
	Sorting BB half-transformed integrals.
	First half integral transformation complete.
	Starting AA second half-transformation.
	Starting AB second half-transformation.
	Starting BB second half-transformation.
	Two-electron integral transformation complete.
	(OV|OV)...
	Starting AA second half-transformation.
	Starting AB second half-transformation.
	Starting BB second half-transformation.
	Two-electron integral transformation complete.
	(OV|VV)...
	Starting AA second half-transformation.
	Starting AB second half-transformation.
	Starting BB second half-transformation.
	Two-electron integral transformation complete.
	(VV|OO)...
	Starting AA/AB first half-transformation.
	Sorting AA/AB half-transformed integrals.
	Starting BB first half-transformation.
	Sorting BB half-transformed integrals.
	First half integral transformation complete.
	Starting AA second half-transformation.
	Starting AB second half-transformation.
	Starting BB second half-transformation.
	Two-electron integral transformation complete.
	(VV|OV)...
	Starting AA second half-transformation.
	Starting AB second half-transformation.
	Starting BB second half-transformation.
	Two-electron integral transformation complete.
	(VV|VV)...
	Starting AA second half-transformation.
	Starting AB second half-transformation.
	Starting BB second half-transformation.
	Two-electron integral transformation complete.
	Frozen core energy     =    -61.29062728049246

	Size of irrep 0 of <AB|CD> integrals:      1.047 (MW) /      8.372 (MB)
	Size of irrep 1 of <AB|CD> integrals:      0.682 (MW) /      5.458 (MB)
	Size of irrep 2 of <AB|CD> integrals:      0.733 (MW) /      5.862 (MB)
	Size of irrep 3 of <AB|CD> integrals:      1.073 (MW) /      8.586 (MB)
	Total:                                     3.535 (MW) /     28.279 (MB)

	Size of irrep 0 of <ab|cd> integrals:      1.082 (MW) /      8.653 (MB)
	Size of irrep 1 of <ab|cd> integrals:      0.726 (MW) /      5.807 (MB)
	Size of irrep 2 of <ab|cd> integrals:      0.789 (MW) /      6.308 (MB)
	Size of irrep 3 of <ab|cd> integrals:      1.098 (MW) /      8.786 (MB)
	Total:                                     3.694 (MW) /     29.555 (MB)

	Size of irrep 0 of <Ab|Cd> integrals:      4.622 (MW) /     36.980 (MB)
	Size of irrep 1 of <Ab|Cd> integrals:      2.816 (MW) /     22.525 (MB)
	Size of irrep 2 of <Ab|Cd> integrals:      3.042 (MW) /     24.332 (MB)
	Size of irrep 3 of <Ab|Cd> integrals:      4.343 (MW) /     34.744 (MB)
	Total:                                    14.823 (MW) /    118.582 (MB)

	Size of irrep 0 of <IA|BC> integrals:      0.228 (MW) /      1.826 (MB)
	Size of irrep 1 of <IA|BC> integrals:      0.111 (MW) /      0.885 (MB)
	Size of irrep 2 of <IA|BC> integrals:      0.134 (MW) /      1.068 (MB)
	Size of irrep 3 of <IA|BC> integrals:      0.199 (MW) /      1.591 (MB)
	Total:                                     0.671 (MW) /      5.371 (MB)

	Size of irrep 0 of <ia|bc> integrals:      0.195 (MW) /      1.561 (MB)
	Size of irrep 1 of <ia|bc> integrals:      0.072 (MW) /      0.573 (MB)
	Size of irrep 2 of <ia|bc> integrals:      0.085 (MW) /      0.682 (MB)
	Size of irrep 3 of <ia|bc> integrals:      0.176 (MW) /      1.409 (MB)
	Total:                                     0.528 (MW) /      4.224 (MB)

	Size of irrep 0 of <Ia|Bc> integrals:      0.232 (MW) /      1.858 (MB)
	Size of irrep 1 of <Ia|Bc> integrals:      0.114 (MW) /      0.913 (MB)
	Size of irrep 2 of <Ia|Bc> integrals:      0.140 (MW) /      1.116 (MB)
	Size of irrep 3 of <Ia|Bc> integrals:      0.200 (MW) /      1.601 (MB)
	Total:                                     0.686 (MW) /      5.487 (MB)

	Size of irrep 0 of <iA|bC> integrals:      0.194 (MW) /      1.548 (MB)
	Size of irrep 1 of <iA|bC> integrals:      0.069 (MW) /      0.550 (MB)
	Size of irrep 2 of <iA|bC> integrals:      0.080 (MW) /      0.642 (MB)
	Size of irrep 3 of <iA|bC> integrals:      0.175 (MW) /      1.400 (MB)
	Total:                                     0.518 (MW) /      4.141 (MB)

	Size of irrep 0 of tIjAb amplitudes:       0.011 (MW) /      0.086 (MB)
	Size of irrep 1 of tIjAb amplitudes:       0.002 (MW) /      0.013 (MB)
	Size of irrep 2 of tIjAb amplitudes:       0.003 (MW) /      0.028 (MB)
	Size of irrep 3 of tIjAb amplitudes:       0.008 (MW) /      0.067 (MB)
	Total:                                     0.024 (MW) /      0.194 (MB)

	Nuclear Rep. energy          =      8.88647461914853
	SCF energy                   =    -75.70538379971323
	One-electron energy          =    -37.40592390254480
	Two-electron (AA) energy     =      3.70821826776364
	Two-electron (BB) energy     =      1.75730924212328
	Two-electron (AB) energy     =      8.63916525428847
	Two-electron energy          =     14.10469276417539
	Reference energy             =    -75.70538379971335

*** tstop() called on node5 at Sat Nov  5 10:19:37 2022
Module time:
	user time   =       2.41 seconds =       0.04 minutes
	system time =       1.31 seconds =       0.02 minutes
	total time  =          4 seconds =       0.07 minutes
Total time:
	user time   =       9.15 seconds =       0.15 minutes
	system time =       1.61 seconds =       0.03 minutes
	total time  =          6 seconds =       0.10 minutes

*** tstart() called on node5
*** at Sat Nov  5 10:19:37 2022

            **************************
            *                        *
            *        CCENERGY        *
            *                        *
            **************************

    Nuclear Rep. energy (wfn)     =    8.886474619148530
    SCF energy          (wfn)     =  -75.705383799713232
    Reference energy    (file100) =  -75.705383799713346

    Input parameters:
    -----------------
    Wave function   =     CC3
    Reference wfn   =     ROHF changed to UHF for Semicanonical Orbitals
    Brueckner       =     No
    Memory (Mbytes) =     31950.0
    Maxiter         =    500
    R_Convergence   =     1.0e-12
    E_Convergence   =     1.0e-06
    Restart         =     Yes
    DIIS            =     Yes
    AO Basis        =     NONE
    ABCD            =     NEW
    Cache Level     =     0
    Cache Type      =     LRU
    Print Level     =     1
    Num. of threads =     4
    # Amps to Print =     10
    Print MP2 Amps? =     No
    Analyze T2 Amps =     No
    Print Pair Ener =     No
    Local CC        =     No
    T3 Ws incore    =     No
    SCS-MP2         =     False
    SCSN-MP2        =     False
    SCS-CCSD        =     False

MP2 correlation energy -0.2064746511609764
                Solving CC Amplitude Equations
                ------------------------------
  Iter             Energy              RMS        T1Diag      D1Diag    New D1Diag    D2Diag
  ----     ---------------------    ---------   ----------  ----------  ----------   --------
     0        -0.206532465392576    0.000e+00    0.013450    0.000000    0.000000    0.000000
     1        -0.221505787697301    3.286e-02    0.016509    0.000000    0.000000    0.000000
     2        -0.226426586157149    1.185e-02    0.018167    0.000000    0.000000    0.000000
     3        -0.226709053991210    3.967e-03    0.018692    0.000000    0.000000    0.000000
     4        -0.226719118785913    1.707e-03    0.018747    0.000000    0.000000    0.000000
     5        -0.226752765101682    7.010e-04    0.018717    0.000000    0.000000    0.000000
     6        -0.226756075282652    2.275e-04    0.018686    0.000000    0.000000    0.000000
     7        -0.226758089073834    8.614e-05    0.018676    0.000000    0.000000    0.000000
     8        -0.226757918083360    3.028e-05    0.018675    0.000000    0.000000    0.000000
     9        -0.226757887375652    1.016e-05    0.018675    0.000000    0.000000    0.000000
    10        -0.226757994837700    3.705e-06    0.018676    0.000000    0.000000    0.000000
    11        -0.226757936720172    1.234e-06    0.018676    0.000000    0.000000    0.000000
    12        -0.226757920717348    3.665e-07    0.018676    0.000000    0.000000    0.000000
    13        -0.226757911495753    1.003e-07    0.018676    0.000000    0.000000    0.000000
    14        -0.226757911123642    3.030e-08    0.018676    0.000000    0.000000    0.000000
    15        -0.226757911068827    1.159e-08    0.018676    0.000000    0.000000    0.000000
    16        -0.226757910994784    5.193e-09    0.018676    0.000000    0.000000    0.000000
    17        -0.226757910904453    2.296e-09    0.018676    0.000000    0.000000    0.000000
    18        -0.226757910850032    9.375e-10    0.018676    0.000000    0.000000    0.000000
    19        -0.226757910841725    3.761e-10    0.018676    0.000000    0.000000    0.000000
    20        -0.226757910842617    1.318e-10    0.018676    0.000000    0.000000    0.000000
    21        -0.226757910841910    4.537e-11    0.018676    0.000000    0.000000    0.000000
    22        -0.226757910841960    1.591e-11    0.018676    0.000000    0.000000    0.000000
    23        -0.226757910841935    4.747e-12    0.018676    0.000000    0.000000    0.000000
    24        -0.226757910841967    1.561e-12    0.018676    0.000000    0.000000    0.000000
    25        -0.226757910841973    4.528e-13    0.018676    0.000000    0.000000    0.000000

    Iterations converged.


    Largest TIA Amplitudes:
              0  14         0.0094822219
              0  15         0.0087017052
              0   6        -0.0086921496
              0   0         0.0085767535
              0   5        -0.0077626613
              0   7        -0.0075682922
              0   2        -0.0073515208
              0  17        -0.0073111206
              2  44        -0.0060926273
              0   4         0.0057305525

    Largest Tia Amplitudes:
              1   1         0.0105760176
              2  63         0.0102630478
              0   0        -0.0096537672
              0   2        -0.0095874089
              2  62         0.0088485892
              2  66         0.0085213112
              0  17         0.0082767426
              0   7         0.0081030611
              0   6        -0.0079043481
              1   4        -0.0077627279

    Largest TIJAB Amplitudes:
      2   1  47   9         0.0086433032
      3   2  65  47         0.0081988096
      3   2  33   6        -0.0080158315
      3   2  62  47        -0.0071861582
      3   1  65   9        -0.0071241977
      2   1  51  17         0.0070155362
      2   1  46   7        -0.0069585054
      3   2  61  47        -0.0068575271
      2   1  44   9         0.0066479054
      2   1  48   9         0.0064128334

    Largest Tijab Amplitudes:
      1   0  47  44        -0.0081487454
      2   0  44  33         0.0077019507
      1   0  52  44        -0.0073515167
      2   1  66   9        -0.0071964779
      2   1  63   6        -0.0070036871
      2   1  66   6        -0.0067761852
      2   1  67   6         0.0064642186
      2   1  62   9        -0.0062224434
      2   1  66   1        -0.0061711831
      2   0  44  36         0.0061507884

    Largest TIjAb Amplitudes:
      3   2  65  66        -0.0191054226
      1   1   9   9        -0.0179489820
      3   2  62  66         0.0172278501
      3   2  65  63        -0.0171064413
      2   0   6  44        -0.0163425650
      2   0   0  44         0.0160666193
      3   2  62  63         0.0158541537
      2   0  14  44         0.0151392549
      3   2  61  66         0.0147782086
      1   0  51  44        -0.0147208877

    SCF energy       (wfn)                    =  -75.705383799713232
    Reference energy (file100)                =  -75.705383799713346

    Opposite-spin MP2 correlation energy      =   -0.157627335953402
    Same-spin MP2 correlation energy          =   -0.045249476294764
    MP2 correlation energy                    =   -0.206474651160976
      * MP2 total energy                      =  -75.911858450874320
    CC3 correlation energy                    =   -0.226757910841973
      * CC3 total energy                      =  -75.932141710555314


*** tstop() called on node5 at Sat Nov  5 10:21:47 2022
Module time:
	user time   =     476.30 seconds =       7.94 minutes
	system time =      41.38 seconds =       0.69 minutes
	total time  =        130 seconds =       2.17 minutes
Total time:
	user time   =     485.46 seconds =       8.09 minutes
	system time =      42.99 seconds =       0.72 minutes
	total time  =        136 seconds =       2.27 minutes

*** tstart() called on node5
*** at Sat Nov  5 10:21:47 2022


			**************************
			*                        *
			*         CCHBAR         *
			*                        *
			**************************

Dots of (HeT1)c in names "CC3 Wxxx" in CC3_HET1 
Wamef terms
	<WAMEF|WAMEF> =   13.3093850204
	<Wamef|Wamef> =   10.8517552693
	<WAmEf|WAmEf> =    9.3208817749
	<WaMeF|WaMeF> =   12.6719385259
Wmnie terms
	<WMNIE (M>N,IE)|WMNIE> =    0.7440554552
	<Wmnie (m>n,ie)|Wmnie> =    0.3280340386
	<WMnIe (Mn,Ie)|WMnIe> =    0.7257224659
	<WmNiE (mN,iE)|WmNiE> =    0.6153798187
	<WMNIE(M>N,EI)|WMNIE(M>N,EI)> =    0.7440554552
	<Wmnie(m>n,ei)|Wmnie(m>n,ei)> =    0.3280340386
	<WMnIe(Mn,eI)|WMnIe(Mn,eI)> =    0.7257224659
	<WmNiE(mN,Ei)|WmNiE(mN,Ei)> =    0.6153798187
Doing Wmnij terms.
	<WMNIJ (M>N,I>J)|WMNIJ> =    9.2636392152
	<Wmnij (m>n,i>j)|Wmnij> =    4.0679518863
	<WMnIj (Mn,Ij)|WMnIj> =    6.4222280838
Doing Wmbij terms.
	<WMBIJ (MB,I>J)|WMBIJ> =    0.7492924488
	<WMBIJ (I>J,MB)|WMBIJ> =    0.7492924488
	<Wmbij (mb,i>j)|Wmbij> =    0.3337515019
	<Wmbij (i>j,mb)|Wmbij> =    0.3337515019
	<WMbIj (Mb,Ij)|WMbIj> =    0.7290800196
	<WMbIj (Ij,Mb)|WMbIj> =    0.7290800196
	<WmBiJ (mB,iJ)|WmBiJ> =    0.6186814395
	<WmBiJ (iJ,mB)|WmBiJ> =    0.6186814395
Doing Wmbej terms.
	<WMBEJ (all ME,JB)|WMBEJ> =   82.2067941675
	<Wmbej|Wmbej> =   62.2577527079
	<WMbEj|WMbEj> =    1.0326879354
	<WmBeJ|WmBeJ> =    1.0420260901
	<WMbeJ|WMbeJ> =   95.2739323277
	<WmBEj|WmBEj> =   68.2760518544
Doing Wabei terms.
	<WABEI (IE,B>A) |WABEI> =   13.3618829974
	<Wabei (ie,b>a)|Wabei> =   10.9473401989
	<WAbEi (iE,bA)|WAbEi> =    9.3930588372
	<WAbEi (iE,Ba)|WAbEi> =   12.7059763320

*** tstop() called on node5 at Sat Nov  5 10:21:48 2022
Module time:
	user time   =       3.51 seconds =       0.06 minutes
	system time =       0.72 seconds =       0.01 minutes
	total time  =          1 seconds =       0.02 minutes
Total time:
	user time   =     488.97 seconds =       8.15 minutes
	system time =      43.71 seconds =       0.73 minutes
	total time  =        137 seconds =       2.28 minutes

*** tstart() called on node5
*** at Sat Nov  5 10:21:48 2022


	**********************************************************
	*  CCEOM: An Equation of Motion Coupled Cluster Program  *
	**********************************************************

	Nuclear Rep. energy (wfn)     =    8.886474619148530
	SCF energy          (wfn)     =  -75.705383799713232
	Reference energy    (file100) =  -75.705383799713346
	CC3 energy          (file100) =   -0.226757910841973

	Input parameters:
	-----------------
	Reference wfn   = ROHF changed to UHF for Semicanonical Orbitals
	Reference EOM wfn=     UHF
	Memory (Mbytes) =  31950.0
	ABCD            =     NEW
	Cache Level     =    0
	Cache Type      =     LRU
	T3 Ws incore  =      No
	Num. of threads =     4
	Local CC        =     No


	CCEOM parameters:
	-----------------
	States sought per irrep     = A1 0, A2 0, B1 1, B2 0,
	Max. number of iterations   =   500
	Vectors stored per root     =    12
	Print HbarSS iterations?    =     0
	Excitation range for HBarSS =     2
	Eigenvalue tolerance        = 1.0e-06
	Eigenvalue toleranceSS      = 1.0e-06
	Residual vector tolerance   = 1.0e-08
	Residual vector toleranceSS = 1.0e-06
	Complex tolerance           = 1.0e-12
	Root for properties         =     1
	Sym of state for properties =     A1
	Guess vectors taken from    = SINGLES
	Restart EOM CC3             = NO
	Collapse with last vector   = YES


Symmetry of ground state: B1
Symmetry of excited state: B1
Symmetry of right eigenvector: A1
Obtaining initial guess from singles-singles block of Hbar...Done.

Iter=1    L=1     Root    EOM Energy     Delta E   Res. Norm    Conv?
                     1   0.5868585676   5.87e-01    5.16e-01      N
Iter=2    L=2     Root    EOM Energy     Delta E   Res. Norm    Conv?
                     1   0.4943227716  -9.25e-02    9.67e-02      N
Iter=3    L=3     Root    EOM Energy     Delta E   Res. Norm    Conv?
                     1   0.4882804110  -6.04e-03    6.22e-02      N
Iter=4    L=4     Root    EOM Energy     Delta E   Res. Norm    Conv?
                     1   0.4851751224  -3.11e-03    4.56e-02      N
Iter=5    L=5     Root    EOM Energy     Delta E   Res. Norm    Conv?
                     1   0.4839863404  -1.19e-03    2.67e-02      N
Iter=6    L=6     Root    EOM Energy     Delta E   Res. Norm    Conv?
                     1   0.4835645121  -4.22e-04    1.34e-02      N
Iter=7    L=7     Root    EOM Energy     Delta E   Res. Norm    Conv?
                     1   0.4834304248  -1.34e-04    8.56e-03      N
Iter=8    L=8     Root    EOM Energy     Delta E   Res. Norm    Conv?
                     1   0.4833577388  -7.27e-05    6.21e-03      N
Iter=9    L=9     Root    EOM Energy     Delta E   Res. Norm    Conv?
                     1   0.4833214987  -3.62e-05    3.91e-03      N
Iter=10   L=10    Root    EOM Energy     Delta E   Res. Norm    Conv?
                     1   0.4833101711  -1.13e-05    3.08e-03      N
Iter=11   L=11    Root    EOM Energy     Delta E   Res. Norm    Conv?
                     1   0.4832996872  -1.05e-05    2.48e-03      N
Iter=12   L=12    Root    EOM Energy     Delta E   Res. Norm    Conv?
                     1   0.4832956545  -4.03e-06    1.40e-03      N
Iter=13   L=2     Root    EOM Energy     Delta E   Res. Norm    Conv?
                     1   0.4832956545  -1.11e-16    1.40e-03      N
Iter=14   L=3     Root    EOM Energy     Delta E   Res. Norm    Conv?
                     1   0.4832949690  -6.86e-07    6.77e-04      N
Iter=15   L=4     Root    EOM Energy     Delta E   Res. Norm    Conv?
                     1   0.4832952359   2.67e-07    3.98e-04      N
Iter=16   L=5     Root    EOM Energy     Delta E   Res. Norm    Conv?
                     1   0.4832945480  -6.88e-07    2.23e-04      N
Iter=17   L=6     Root    EOM Energy     Delta E   Res. Norm    Conv?
                     1   0.4832941460  -4.02e-07    9.54e-05      N
Iter=18   L=7     Root    EOM Energy     Delta E   Res. Norm    Conv?
                     1   0.4832942469   1.01e-07    3.68e-05      N
Iter=19   L=8     Root    EOM Energy     Delta E   Res. Norm    Conv?
                     1   0.4832942081  -3.89e-08    1.49e-05      N
Iter=20   L=9     Root    EOM Energy     Delta E   Res. Norm    Conv?
                     1   0.4832942025  -5.54e-09    6.89e-06      N
Iter=21   L=10    Root    EOM Energy     Delta E   Res. Norm    Conv?
                     1   0.4832942014  -1.11e-09    2.82e-06      N
Iter=22   L=11    Root    EOM Energy     Delta E   Res. Norm    Conv?
                     1   0.4832942040   2.61e-09    1.03e-06      N
Iter=23   L=12    Root    EOM Energy     Delta E   Res. Norm    Conv?
                     1   0.4832942078   3.81e-09    4.43e-07      N
Iter=24   L=2     Root    EOM Energy     Delta E   Res. Norm    Conv?
                     1   0.4832942078  -5.88e-13    4.43e-07      N
Iter=25   L=3     Root    EOM Energy     Delta E   Res. Norm    Conv?
                     1   0.4832942084   5.15e-10    2.86e-07      N
Iter=26   L=4     Root    EOM Energy     Delta E   Res. Norm    Conv?
                     1   0.4832942085   1.80e-10    2.01e-07      N
Iter=27   L=5     Root    EOM Energy     Delta E   Res. Norm    Conv?
                     1   0.4832942092   6.45e-10    1.38e-07      N
Iter=28   L=6     Root    EOM Energy     Delta E   Res. Norm    Conv?
                     1   0.4832942094   2.49e-10    9.10e-08      N
Iter=29   L=7     Root    EOM Energy     Delta E   Res. Norm    Conv?
                     1   0.4832942096   2.18e-10    5.97e-08      N
Iter=30   L=8     Root    EOM Energy     Delta E   Res. Norm    Conv?
                     1   0.4832942097   1.68e-11    4.10e-08      N
Iter=31   L=9     Root    EOM Energy     Delta E   Res. Norm    Conv?
                     1   0.4832942096  -2.44e-11    2.52e-08      N
Iter=32   L=10    Root    EOM Energy     Delta E   Res. Norm    Conv?
                     1   0.4832942096   1.92e-12    1.52e-08      N
Iter=33   L=11    Root    EOM Energy     Delta E   Res. Norm    Conv?
                     1   0.4832942096  -3.09e-11    9.84e-09      Y
Completed EOM_CCSD
Collapsing to only 1 vector(s).
Copying root 1 to CC3_MISC file.
Setting initial CC3 eigenvalue to    0.4832942096
Iter=1    L=1     Root    EOM Energy     Delta E   Res. Norm    Conv?
                     1   0.4781049248  -5.19e-03    4.36e-02      N
Iter=2    L=2     Root    EOM Energy     Delta E   Res. Norm    Conv?
                     1   0.4765627050  -1.54e-03    2.68e-02      N
Iter=3    L=3     Root    EOM Energy     Delta E   Res. Norm    Conv?
                     1   0.4751262365  -1.44e-03    4.25e-02      N
Iter=4    L=4     Root    EOM Energy     Delta E   Res. Norm    Conv?
                     1   0.4733126582  -1.81e-03    2.50e-02      N
Iter=5    L=5     Root    EOM Energy     Delta E   Res. Norm    Conv?
                     1   0.4729172462  -3.95e-04    1.31e-02      N
Iter=6    L=6     Root    EOM Energy     Delta E   Res. Norm    Conv?
                     1   0.4727784217  -1.39e-04    1.29e-02      N
Iter=7    L=7     Root    EOM Energy     Delta E   Res. Norm    Conv?
                     1   0.4726188784  -1.60e-04    9.66e-03      N
Iter=8    L=8     Root    EOM Energy     Delta E   Res. Norm    Conv?
                     1   0.4725326732  -8.62e-05    5.44e-03      N
Iter=9    L=9     Root    EOM Energy     Delta E   Res. Norm    Conv?
                     1   0.4725266047  -6.07e-06    2.42e-03      N
Iter=10   L=10    Root    EOM Energy     Delta E   Res. Norm    Conv?
                     1   0.4725254635  -1.14e-06    1.23e-03      N
Collapsing to 2 vector(s).
Change in CC3 energy from last iterated value   -0.0107687461
Iter=11   L=2     Root    EOM Energy     Delta E   Res. Norm    Conv?
                     1   0.4725528010   2.73e-05    1.23e-03      N
Iter=12   L=3     Root    EOM Energy     Delta E   Res. Norm    Conv?
                     1   0.4725504268  -2.37e-06    8.04e-04      N
Iter=13   L=4     Root    EOM Energy     Delta E   Res. Norm    Conv?
                     1   0.4725501699  -2.57e-07    4.88e-04      N
Iter=14   L=5     Root    EOM Energy     Delta E   Res. Norm    Conv?
                     1   0.4725505276   3.58e-07    2.26e-04      N
Iter=15   L=6     Root    EOM Energy     Delta E   Res. Norm    Conv?
                     1   0.4725499178  -6.10e-07    1.21e-04      N
Iter=16   L=7     Root    EOM Energy     Delta E   Res. Norm    Conv?
                     1   0.4725499165  -1.29e-09    7.47e-05      N
Iter=17   L=8     Root    EOM Energy     Delta E   Res. Norm    Conv?
                     1   0.4725502240   3.07e-07    5.56e-05      N
Iter=18   L=9     Root    EOM Energy     Delta E   Res. Norm    Conv?
                     1   0.4725502822   5.82e-08    4.77e-05      N
Iter=19   L=10    Root    EOM Energy     Delta E   Res. Norm    Conv?
                     1   0.4725502542  -2.79e-08    3.41e-05      N
Collapsing to 2 vector(s).
Change in CC3 energy from last iterated value    0.0000247908
Iter=20   L=2     Root    EOM Energy     Delta E   Res. Norm    Conv?
                     1   0.4725501609  -9.33e-08    3.37e-05      N
Iter=21   L=3     Root    EOM Energy     Delta E   Res. Norm    Conv?
                     1   0.4725501956   3.47e-08    1.87e-05      N
Iter=22   L=4     Root    EOM Energy     Delta E   Res. Norm    Conv?
                     1   0.4725502158   2.02e-08    1.03e-05      N
Iter=23   L=5     Root    EOM Energy     Delta E   Res. Norm    Conv?
                     1   0.4725502258   9.97e-09    4.83e-06      N
Iter=24   L=6     Root    EOM Energy     Delta E   Res. Norm    Conv?
                     1   0.4725502267   9.09e-10    2.12e-06      N
Iter=25   L=7     Root    EOM Energy     Delta E   Res. Norm    Conv?
                     1   0.4725502255  -1.16e-09    1.09e-06      N
Iter=26   L=8     Root    EOM Energy     Delta E   Res. Norm    Conv?
                     1   0.4725502241  -1.41e-09    5.66e-07      N
Iter=27   L=9     Root    EOM Energy     Delta E   Res. Norm    Conv?
                     1   0.4725502242   1.45e-10    3.17e-07      N
Iter=28   L=10    Root    EOM Energy     Delta E   Res. Norm    Conv?
                     1   0.4725502245   2.36e-10    2.22e-07      N
Collapsing to 2 vector(s).
Change in CC3 energy from last iterated value   -0.0000000298
Iter=29   L=2     Root    EOM Energy     Delta E   Res. Norm    Conv?
                     1   0.4725502246   1.12e-10    2.22e-07      N
Iter=30   L=3     Root    EOM Energy     Delta E   Res. Norm    Conv?
                     1   0.4725502246  -3.99e-11    1.31e-07      N
Iter=31   L=4     Root    EOM Energy     Delta E   Res. Norm    Conv?
                     1   0.4725502245  -3.47e-12    6.58e-08      N
Iter=32   L=5     Root    EOM Energy     Delta E   Res. Norm    Conv?
                     1   0.4725502246   2.55e-12    2.79e-08      N
Iter=33   L=6     Root    EOM Energy     Delta E   Res. Norm    Conv?
                     1   0.4725502245  -3.43e-12    1.28e-08      N
Iter=34   L=7     Root    EOM Energy     Delta E   Res. Norm    Conv?
                     1   0.4725502245   1.52e-12    6.79e-09      Y
Collapsing to only 1 vector(s).
Change in CC3 energy from last iterated value    0.0000000001

Procedure converged for 1 root(s).
Energy written to CC_INFO:Etot  -75.4595914860
States per irrep written to CC_INFO.
<R|R> =   1.0000000000000002
EOM CC3 R0 for root 0 =  -0.00374308226

Final Energetic Summary for Converged Roots of Irrep B1
                     Excitation Energy              Total Energy
                (eV)     (cm^-1)     (au)             (au)
EOM State 1     12.859   103712.8   0.4725502245   -75.459591486006

Largest components of excited wave function #1:
 RIA (libdpd indices) : (cscf notation)
         1 >   0      :       3a1 >    4a1 :    0.4914120093
         1 >   2      :       3a1 >    6a1 :   -0.1779401034
         1 >   5      :       3a1 >    9a1 :   -0.1365387913
         1 >   1      :       3a1 >    5a1 :   -0.1211193780
         1 >   4      :       3a1 >    8a1 :    0.0509233654
 Ria (libdpd indices) : (cscf notation)
         1 >   0      :       3a1 >    4a1 :   -0.5848701657
         1 >   2      :       3a1 >    6a1 :   -0.2373823953
         1 >   5      :       3a1 >    9a1 :    0.1720048361
         1 >   1      :       3a1 >    5a1 :    0.1339836956
         1 >   4      :       3a1 >    8a1 :   -0.0582829480
 RIjAb (libdpd indices)     : (cscf notation)
        0   1 >   0   0     :    1b1    3a1 >    4a1    1b1 :   -0.3350166300
        0   1 >   2   0     :    1b1    3a1 >    6a1    1b1 :    0.1215594569
        0   1 >   0   1     :    1b1    3a1 >    4a1    2b1 :    0.0948788456
        0   1 >   5   0     :    1b1    3a1 >    9a1    1b1 :    0.0936587553
        0   1 >   1   0     :    1b1    3a1 >    5a1    1b1 :    0.0802997360
 RIJAB (libdpd indices)     : (cscf notation)
        0   1 >   3   0     :    1b1    3a1 >    5b1    4a1 :    0.0204252871
        0   1 >   0   0     :    1b1    3a1 >    2b1    4a1 :    0.0193793061
        0   1 >   4   0     :    1b2    3a1 >    6b2    4a1 :   -0.0192239208
        0   1 >   1   0     :    1b2    3a1 >    3b2    4a1 :    0.0183250415
        0   1 >   0   0     :    1b2    3a1 >    2b2    4a1 :    0.0165084066
 Rijab (libdpd indices)     : (cscf notation)
        0   1 >   4   0     :    1b2    3a1 >    6b2    4a1 :    0.0243842389
        0   1 >   1   0     :    1b2    3a1 >    3b2    4a1 :    0.0234616468
        0   1 >   0   0     :    1b2    3a1 >    2b2    4a1 :    0.0200595607
        0   1 >   8   0     :    1b2    3a1 >   10b2    4a1 :   -0.0138852176
        1   0 >   5   0     :    3a1    2a1 >    9a1    4a1 :   -0.0097434291

	Putting into environment energy for root of R irrep 1 and root 1.
	Putting into environment CURRENT ENERGY:              -75.4595914860

	Total # of sigma evaluations: 68

*** tstop() called on node5 at Sat Nov  5 10:29:49 2022
Module time:
	user time   =    1789.37 seconds =      29.82 minutes
	system time =     130.05 seconds =       2.17 minutes
	total time  =        481 seconds =       8.02 minutes
Total time:
	user time   =    2278.34 seconds =      37.97 minutes
	system time =     173.76 seconds =       2.90 minutes
	total time  =        618 seconds =      10.30 minutes

    Psi4 stopped on: Saturday, 05 November 2022 10:29AM
    Psi4 wall time for execution: 0:10:17.76

*** Psi4 exiting successfully. Buy a developer a beer!
