
    -----------------------------------------------------------------------
          Psi4: An Open-Source Ab Initio Electronic Structure Package
                               Psi4 1.2 release

                         Git: Rev {HEAD} 9d4a61c 


    R. M. Parrish, L. A. Burns, D. G. A. Smith, A. C. Simmonett,
    A. E. DePrince III, E. G. Hohenstein, U. Bozkaya, A. Yu. Sokolov,
    R. Di Remigio, R. M. Richard, J. F. Gonthier, A. M. James,
    H. R. McAlexander, A. Kumar, M. Saitow, X. Wang, B. P. Pritchard,
    P. Verma, H. F. Schaefer III, K. Patkowski, R. A. King, E. F. Valeev,
    F. A. Evangelista, J. M. Turney, T. D. Crawford, and C. D. Sherrill,
    J. Chem. Theory Comput. 13(7) pp 3185--3197 (2017).
    (doi: 10.1021/acs.jctc.7b00174)


                         Additional Contributions by
    P. Kraus, H. Kruse, M. H. Lechner, M. C. Schieber, and R. A. Shaw

    -----------------------------------------------------------------------


    Psi4 started on: Saturday, 05 November 2022 10:19AM

    Process ID: 39460
    Host:       node6
    PSIDATADIR: /home/qc/psi4conda/share/psi4
    Memory:     500.0 MiB
    Threads:    4
    
  ==> Input File <==

--------------------------------------------------------------------------
#h2o SPECIAL eom-cc3
memory 31950 mb

molecule h2o{
1 2
H        0.0000000000       -1.5398254388       -0.9704848674
O        0.0000000000        0.0000000000        0.1247055447
H        0.0000000000        1.5398254388       -0.9704848674

units bohr
}
 
set globals {
 reference rohf
 basis aug-cc-pvtz-dk
 freeze_core true
 cachelevel=0
 relativistic x2c
 maxiter=500
 dertype none
 ints_tolerance 20
 roots_per_irrep = [0,0,1,0]
}

set scf d_convergence 12
set ccenergy r_convergence 12
set cceom r_convergence 8

energy('eom-cc3')--------------------------------------------------------------------------

  Memory set to  29.756 GiB by Python driver.

*** tstart() called on node6
*** at Sat Nov  5 10:19:16 2022

   => Loading Basis Set <=

    Name: AUG-CC-PVTZ-DK
    Role: ORBITAL
    Keyword: BASIS
    atoms 1, 3 entry H          line    45 file /home/qc/psi4conda/share/psi4/basis/aug-cc-pvtz-dk.gbs 
    atoms 2    entry O          line   324 file /home/qc/psi4conda/share/psi4/basis/aug-cc-pvtz-dk.gbs 


         ---------------------------------------------------------
                                   SCF
            by Justin Turney, Rob Parrish, Andy Simmonett
                             and Daniel Smith
                             ROHF Reference
                        4 Threads,  30469 MiB Core
         ---------------------------------------------------------

  ==> Geometry <==

    Molecular point group: c2v
    Full point group: C2v

    Geometry (in Bohr), charge = 1, multiplicity = 2:

       Center              X                  Y                   Z               Mass       
    ------------   -----------------  -----------------  -----------------  -----------------
         H            0.000000000000    -1.539825438800    -0.972622315921     1.007825032070
         O            0.000000000000     0.000000000000     0.122568096179    15.994914619560
         H           -0.000000000000     1.539825438800    -0.972622315921     1.007825032070

  Running in c2v symmetry.

  Rotational constants: A =     28.03788  B =     12.59610  C =      8.69144 [cm^-1]
  Rotational constants: A = 840554.60982  B = 377621.59033  C = 260562.93702 [MHz]
  Nuclear repulsion =    8.792211931964061

  Charge       = 1
  Multiplicity = 2
  Electrons    = 9
  Nalpha       = 5
  Nbeta        = 4

  ==> Algorithm <==

  SCF Algorithm Type is PK.
  DIIS enabled.
  MOM disabled.
  Fractional occupation disabled.
  Guess Type is GWH.
  Energy threshold   = 1.00e-08
  Density threshold  = 1.00e-12
  Integral threshold = 1.00e-20

  ==> Primary Basis <==

  Basis Set: AUG-CC-PVTZ-DK
    Blend: AUG-CC-PVTZ-DK
    Number of shells: 32
    Number of basis function: 92
    Number of Cartesian functions: 105
    Spherical Harmonics?: true
    Max angular momentum: 3

   => Loading Basis Set <=

    Name: (AUG-CC-PVTZ-DK AUX)
    Role: DECON
    Keyword: BASIS_RELATIVISTIC
    atoms 1, 3 entry H          line    45 file /home/qc/psi4conda/share/psi4/basis/aug-cc-pvtz-dk.gbs func decontract
    atoms 2    entry O          line   324 file /home/qc/psi4conda/share/psi4/basis/aug-cc-pvtz-dk.gbs func decontract

  ==> Pre-Iterations <==

   -------------------------------------------------------
    Irrep   Nso     Nmo     Nalpha   Nbeta   Ndocc  Nsocc
   -------------------------------------------------------
     A1        35      35       0       0       0       0
     A2        12      12       0       0       0       0
     B1        18      18       0       0       0       0
     B2        27      27       0       0       0       0
   -------------------------------------------------------
    Total      92      92       5       4       4       1
   -------------------------------------------------------

 OEINTS: Using relativistic (X2C) overlap, kinetic, and potential integrals.
         ------------------------------------------------------------
         Spin-Free X2C Integrals at the One-Electron Level (SFX2C-1e)
                 by Prakash Verma and Francesco A. Evangelista
         ------------------------------------------------------------

  ==> X2C Options <==

    Computational Basis: AUG-CC-PVTZ-DK
    X2C Basis: (AUG-CC-PVTZ-DK AUX)
    The X2C Hamiltonian will be computed in the X2C Basis

    Comparing only 35 out of 45 elements of H_Dirac

    Comparing only 18 out of 20 elements of H_Dirac

    Comparing only 27 out of 31 elements of H_Dirac

    The 1-norm of |H_X2C - H_Dirac| is: 6.757923689028

    WARNING: The X2C and Dirac Hamiltonians have substatially different eigenvalues!
             This is probably caused by the recontraction of the basis set.

  ==> Integral Setup <==

  Using in-core PK algorithm.
   Calculation information:
      Number of atoms:                   3
      Number of AO shells:              32
      Number of primitives:             52
      Number of atomic orbitals:       105
      Number of basis functions:        92

      Integral cutoff                 1.00e-20
      Number of threads:                 4

  Performing in-core PK
  Using 18305562 doubles for integral storage.
  We computed 171364 shell quartets total.
  Whereas there are 139656 unique shell quartets.
    22.70 percent of shell quartets recomputed by reordering.

  ==> DiskJK: Disk-Based J/K Matrices <==

    J tasked:                  Yes
    K tasked:                  Yes
    wK tasked:                  No
    Memory (MB):             22852
    Schwarz Cutoff:          1E-20

    OpenMP threads:              4

  Minimum eigenvalue in the overlap matrix is 4.1056401421E-04.
  Using Symmetric Orthogonalization.

  SCF Guess: Generalized Wolfsberg-Helmholtz.

  ==> Iterations <==

                        Total Energy        Delta E     RMS |[F,P]|

   @ROHF iter   1:   -69.33471088913859   -6.93347e+01   9.78352e-02 
   @ROHF iter   2:   -75.57258772362997   -6.23788e+00   1.09264e-02 DIIS
   @ROHF iter   3:   -75.69036197964836   -1.17774e-01   2.86600e-03 DIIS
   @ROHF iter   4:   -75.70252260786644   -1.21606e-02   1.14101e-03 DIIS
   @ROHF iter   5:   -75.70470628165059   -2.18367e-03   3.52714e-04 DIIS
   @ROHF iter   6:   -75.70489631818870   -1.90037e-04   5.77702e-05 DIIS
   @ROHF iter   7:   -75.70490573074719   -9.41256e-06   9.97577e-06 DIIS
   @ROHF iter   8:   -75.70490597807192   -2.47325e-07   1.30153e-06 DIIS
   @ROHF iter   9:   -75.70490598252977   -4.45785e-09   2.71251e-07 DIIS
   @ROHF iter  10:   -75.70490598264436   -1.14596e-10   6.12408e-08 DIIS
   @ROHF iter  11:   -75.70490598265042   -6.05382e-12   9.47409e-09 DIIS
   @ROHF iter  12:   -75.70490598265054   -1.27898e-13   1.09220e-09 DIIS
   @ROHF iter  13:   -75.70490598265043    1.13687e-13   1.69973e-10 DIIS
   @ROHF iter  14:   -75.70490598265033    9.94760e-14   2.60765e-11 DIIS
   @ROHF iter  15:   -75.70490598265050   -1.70530e-13   5.61354e-12 DIIS
   @ROHF iter  16:   -75.70490598265053   -2.84217e-14   8.61833e-13 DIIS

  ==> Post-Iterations <==

    Orbital Energies [Eh]
    ---------------------

    Doubly Occupied:                                                      

       1A1   -21.118362     2A1    -1.801176     1B2    -1.174980  
       3A1    -1.048465  

    Singly Occupied:                                                      

       1B1    -0.686272  

    Virtual:                                                              

       4A1    -0.181267     2B2    -0.116688     5A1    -0.060923  
       2B1    -0.057654     6A1    -0.041973     3B2    -0.027467  
       4B2     0.010422     7A1     0.017984     1A2     0.036608  
       3B1     0.069500     8A1     0.072236     5B2     0.162862  
       9A1     0.178029     6B2     0.194602     7B2     0.323040  
      10A1     0.347824    11A1     0.408841     4B1     0.423058  
       2A2     0.423132    12A1     0.515941     5B1     0.554005  
      13A1     0.583294     8B2     0.596923     6B1     0.607238  
       3A2     0.623579     9B2     0.661257    14A1     0.666799  
      15A1     0.727812    10B2     0.742407     7B1     0.747975  
      11B2     0.828143    16A1     0.861438     4A2     0.871802  
      12B2     0.964579     5A2     1.163977     8B1     1.223282  
      17A1     1.243269    13B2     1.411921    18A1     1.442551  
      14B2     1.580300    19A1     1.682531     9B1     1.832522  
       6A2     1.898334    20A1     1.944766    21A1     1.980596  
      10B1     2.003987    15B2     2.051851    22A1     2.095186  
      11B1     2.305718    23A1     2.313526    16B2     2.321657  
       7A2     2.451829    17B2     2.485907    18B2     3.162851  
      24A1     3.305193     8A2     3.574606    12B1     3.584219  
      19B2     3.772871    25A1     3.774597    13B1     3.897521  
      14B1     3.965426     9A2     3.968524    20B2     4.046874  
      26A1     4.072311    27A1     4.204197    21B2     4.275855  
      22B2     4.608043    10A2     4.633030    28A1     4.734479  
      23B2     4.832172    15B1     4.918565    29A1     5.219868  
      30A1     5.605444    24B2     6.064287    16B1     6.203301  
      31A1     6.293698    17B1     6.599249    18B1     6.707336  
      11A2     6.711280    32A1     6.774695    25B2     6.834962  
      12A2     6.851284    33A1     6.967933    26B2     7.307463  
      34A1     7.404523    27B2     8.081440    35A1    14.111075  

    Final Occupation by Irrep:
             A1    A2    B1    B2 
    DOCC [     3,    0,    0,    1 ]
    SOCC [     0,    0,    1,    0 ]

  Energy converged.

  @ROHF Final Energy:   -75.70490598265053

   => Energetics <=

    Nuclear Repulsion Energy =              8.7922119319640615
    One-Electron Energy =                -117.6001420752380398
    Two-Electron Energy =                  33.1030241606234554
    Total Energy =                        -75.7049059826505299



Properties will be evaluated at   0.000000,   0.000000,   0.000000 [a0]

Properties computed using the SCF density matrix

  Nuclear Dipole Moment: [e a0]
     X:     0.0000      Y:     0.0000      Z:    -0.9647

  Electronic Dipole Moment: [e a0]
     X:     0.0000      Y:     0.0000      Z:    -0.0038

  Dipole Moment: [e a0]
     X:     0.0000      Y:     0.0000      Z:    -0.9685     Total:     0.9685

  Dipole Moment: [D]
     X:     0.0000      Y:     0.0000      Z:    -2.4616     Total:     2.4616


*** tstop() called on node6 at Sat Nov  5 10:19:18 2022
Module time:
	user time   =       5.70 seconds =       0.10 minutes
	system time =       0.15 seconds =       0.00 minutes
	total time  =          2 seconds =       0.03 minutes
Total time:
	user time   =       5.70 seconds =       0.10 minutes
	system time =       0.15 seconds =       0.00 minutes
	total time  =          2 seconds =       0.03 minutes
   => Loading Basis Set <=

    Name: (AUG-CC-PVTZ-DK AUX)
    Role: DECON
    Keyword: BASIS_RELATIVISTIC
    atoms 1, 3 entry H          line    45 file /home/qc/psi4conda/share/psi4/basis/aug-cc-pvtz-dk.gbs func decontract
    atoms 2    entry O          line   324 file /home/qc/psi4conda/share/psi4/basis/aug-cc-pvtz-dk.gbs func decontract

 MINTS: Wrapper to libmints.
   by Justin Turney

   Calculation information:
      Number of threads:                 4
      Number of atoms:                   3
      Number of AO shells:              32
      Number of SO shells:              23
      Number of primitives:             52
      Number of atomic orbitals:       105
      Number of basis functions:        92

      Number of irreps:                  4
      Integral cutoff                 1.00e-20
      Number of functions per irrep: [  35   12   18   27 ]

 OEINTS: Using relativistic (X2C) overlap, kinetic, and potential integrals.
         ------------------------------------------------------------
         Spin-Free X2C Integrals at the One-Electron Level (SFX2C-1e)
                 by Prakash Verma and Francesco A. Evangelista
         ------------------------------------------------------------

  ==> X2C Options <==

    Computational Basis: AUG-CC-PVTZ-DK
    X2C Basis: (AUG-CC-PVTZ-DK AUX)
    The X2C Hamiltonian will be computed in the X2C Basis

    Comparing only 35 out of 45 elements of H_Dirac

    Comparing only 18 out of 20 elements of H_Dirac

    Comparing only 27 out of 31 elements of H_Dirac

    The 1-norm of |H_X2C - H_Dirac| is: 6.757923689028

    WARNING: The X2C and Dirac Hamiltonians have substatially different eigenvalues!
             This is probably caused by the recontraction of the basis set.

 OEINTS: Overlap, kinetic, potential, dipole, and quadrupole integrals
         stored in file 35.

      Computing two-electron integrals...done
      Computed 2241200 non-zero two-electron integrals.
        Stored in file 33.


*** tstart() called on node6
*** at Sat Nov  5 10:19:19 2022


	Wfn Parameters:
	--------------------
	Wavefunction         = CC3
	Number of irreps     = 4
	Number of MOs        = 92
	Number of active MOs = 91
	AO-Basis             = NONE
	Semicanonical        = true
	Reference            = ROHF changed to UHF for semicanonical orbitals
	Print Level          = 1

	IRREP	# MOs	# FZDC	# DOCC	# SOCC	# VIRT	# FZVR
	-----	-----	------	------	------	------	------
	 A1	   35	    1	    2	    0	    32	    0
	 A2	   12	    0	    0	    0	    12	    0
	 B1	   18	    0	    0	    1	    17	    0
	 B2	   27	    0	    1	    0	    26	    0
	Transforming integrals...
	IWL integrals will be deleted.
	(OO|OO)...
	Presorting SO-basis two-electron integrals.
	Sorting File: SO Ints (nn|nn) nbuckets = 1
	Transforming the one-electron integrals and constructing Fock matrices
	Starting AA/AB first half-transformation.
	Sorting AA/AB half-transformed integrals.
	Starting BB first half-transformation.
	Sorting BB half-transformed integrals.
	First half integral transformation complete.
	Starting AA second half-transformation.
	Starting AB second half-transformation.
	Starting BB second half-transformation.
	Two-electron integral transformation complete.
	(OO|OV)...
	Starting AA second half-transformation.
	Starting AB second half-transformation.
	Starting BB second half-transformation.
	Two-electron integral transformation complete.
	(OO|VV)...
	Starting AA second half-transformation.
	Starting AB second half-transformation.
	Starting BB second half-transformation.
	Two-electron integral transformation complete.
	(OV|OO)...
	Starting AA/AB first half-transformation.
	Sorting AA/AB half-transformed integrals.
	Starting BB first half-transformation.
	Sorting BB half-transformed integrals.
	First half integral transformation complete.
	Starting AA second half-transformation.
	Starting AB second half-transformation.
	Starting BB second half-transformation.
	Two-electron integral transformation complete.
	(OV|OV)...
	Starting AA second half-transformation.
	Starting AB second half-transformation.
	Starting BB second half-transformation.
	Two-electron integral transformation complete.
	(OV|VV)...
	Starting AA second half-transformation.
	Starting AB second half-transformation.
	Starting BB second half-transformation.
	Two-electron integral transformation complete.
	(VV|OO)...
	Starting AA/AB first half-transformation.
	Sorting AA/AB half-transformed integrals.
	Starting BB first half-transformation.
	Sorting BB half-transformed integrals.
	First half integral transformation complete.
	Starting AA second half-transformation.
	Starting AB second half-transformation.
	Starting BB second half-transformation.
	Two-electron integral transformation complete.
	(VV|OV)...
	Starting AA second half-transformation.
	Starting AB second half-transformation.
	Starting BB second half-transformation.
	Two-electron integral transformation complete.
	(VV|VV)...
	Starting AA second half-transformation.
	Starting AB second half-transformation.
	Starting BB second half-transformation.
	Two-electron integral transformation complete.
	Frozen core energy     =    -61.26794754487477

	Size of irrep 0 of <AB|CD> integrals:      1.047 (MW) /      8.372 (MB)
	Size of irrep 1 of <AB|CD> integrals:      0.682 (MW) /      5.458 (MB)
	Size of irrep 2 of <AB|CD> integrals:      0.733 (MW) /      5.862 (MB)
	Size of irrep 3 of <AB|CD> integrals:      1.073 (MW) /      8.586 (MB)
	Total:                                     3.535 (MW) /     28.279 (MB)

	Size of irrep 0 of <ab|cd> integrals:      1.082 (MW) /      8.653 (MB)
	Size of irrep 1 of <ab|cd> integrals:      0.726 (MW) /      5.807 (MB)
	Size of irrep 2 of <ab|cd> integrals:      0.789 (MW) /      6.308 (MB)
	Size of irrep 3 of <ab|cd> integrals:      1.098 (MW) /      8.786 (MB)
	Total:                                     3.694 (MW) /     29.555 (MB)

	Size of irrep 0 of <Ab|Cd> integrals:      4.622 (MW) /     36.980 (MB)
	Size of irrep 1 of <Ab|Cd> integrals:      2.816 (MW) /     22.525 (MB)
	Size of irrep 2 of <Ab|Cd> integrals:      3.042 (MW) /     24.332 (MB)
	Size of irrep 3 of <Ab|Cd> integrals:      4.343 (MW) /     34.744 (MB)
	Total:                                    14.823 (MW) /    118.582 (MB)

	Size of irrep 0 of <IA|BC> integrals:      0.228 (MW) /      1.826 (MB)
	Size of irrep 1 of <IA|BC> integrals:      0.111 (MW) /      0.885 (MB)
	Size of irrep 2 of <IA|BC> integrals:      0.134 (MW) /      1.068 (MB)
	Size of irrep 3 of <IA|BC> integrals:      0.199 (MW) /      1.591 (MB)
	Total:                                     0.671 (MW) /      5.371 (MB)

	Size of irrep 0 of <ia|bc> integrals:      0.195 (MW) /      1.561 (MB)
	Size of irrep 1 of <ia|bc> integrals:      0.072 (MW) /      0.573 (MB)
	Size of irrep 2 of <ia|bc> integrals:      0.085 (MW) /      0.682 (MB)
	Size of irrep 3 of <ia|bc> integrals:      0.176 (MW) /      1.409 (MB)
	Total:                                     0.528 (MW) /      4.224 (MB)

	Size of irrep 0 of <Ia|Bc> integrals:      0.232 (MW) /      1.858 (MB)
	Size of irrep 1 of <Ia|Bc> integrals:      0.114 (MW) /      0.913 (MB)
	Size of irrep 2 of <Ia|Bc> integrals:      0.140 (MW) /      1.116 (MB)
	Size of irrep 3 of <Ia|Bc> integrals:      0.200 (MW) /      1.601 (MB)
	Total:                                     0.686 (MW) /      5.487 (MB)

	Size of irrep 0 of <iA|bC> integrals:      0.194 (MW) /      1.548 (MB)
	Size of irrep 1 of <iA|bC> integrals:      0.069 (MW) /      0.550 (MB)
	Size of irrep 2 of <iA|bC> integrals:      0.080 (MW) /      0.642 (MB)
	Size of irrep 3 of <iA|bC> integrals:      0.175 (MW) /      1.400 (MB)
	Total:                                     0.518 (MW) /      4.141 (MB)

	Size of irrep 0 of tIjAb amplitudes:       0.011 (MW) /      0.086 (MB)
	Size of irrep 1 of tIjAb amplitudes:       0.002 (MW) /      0.013 (MB)
	Size of irrep 2 of tIjAb amplitudes:       0.003 (MW) /      0.028 (MB)
	Size of irrep 3 of tIjAb amplitudes:       0.008 (MW) /      0.067 (MB)
	Total:                                     0.024 (MW) /      0.194 (MB)

	Nuclear Rep. energy          =      8.79221193196406
	SCF energy                   =    -75.70490598265053
	One-electron energy          =    -37.30100563128606
	Two-electron (AA) energy     =      3.70067595375587
	Two-electron (BB) energy     =      1.75291866958192
	Two-electron (AB) energy     =      8.61824063820858
	Two-electron energy          =     14.07183526154636
	Reference energy             =    -75.70490598265040

*** tstop() called on node6 at Sat Nov  5 10:19:23 2022
Module time:
	user time   =       2.59 seconds =       0.04 minutes
	system time =       1.34 seconds =       0.02 minutes
	total time  =          4 seconds =       0.07 minutes
Total time:
	user time   =      10.23 seconds =       0.17 minutes
	system time =       1.58 seconds =       0.03 minutes
	total time  =          7 seconds =       0.12 minutes

*** tstart() called on node6
*** at Sat Nov  5 10:19:23 2022

            **************************
            *                        *
            *        CCENERGY        *
            *                        *
            **************************

    Nuclear Rep. energy (wfn)     =    8.792211931964061
    SCF energy          (wfn)     =  -75.704905982650530
    Reference energy    (file100) =  -75.704905982650402

    Input parameters:
    -----------------
    Wave function   =     CC3
    Reference wfn   =     ROHF changed to UHF for Semicanonical Orbitals
    Brueckner       =     No
    Memory (Mbytes) =     31950.0
    Maxiter         =    500
    R_Convergence   =     1.0e-12
    E_Convergence   =     1.0e-06
    Restart         =     Yes
    DIIS            =     Yes
    AO Basis        =     NONE
    ABCD            =     NEW
    Cache Level     =     0
    Cache Type      =     LRU
    Print Level     =     1
    Num. of threads =     4
    # Amps to Print =     10
    Print MP2 Amps? =     No
    Analyze T2 Amps =     No
    Print Pair Ener =     No
    Local CC        =     No
    T3 Ws incore    =     No
    SCS-MP2         =     False
    SCSN-MP2        =     False
    SCS-CCSD        =     False

MP2 correlation energy -0.2071165761081984
                Solving CC Amplitude Equations
                ------------------------------
  Iter             Energy              RMS        T1Diag      D1Diag    New D1Diag    D2Diag
  ----     ---------------------    ---------   ----------  ----------  ----------   --------
     0        -0.207174837855075    0.000e+00    0.013491    0.000000    0.000000    0.000000
     1        -0.222139377526953    3.330e-02    0.016628    0.000000    0.000000    0.000000
     2        -0.227142068904368    1.211e-02    0.018350    0.000000    0.000000    0.000000
     3        -0.227438747361979    4.098e-03    0.018912    0.000000    0.000000    0.000000
     4        -0.227449615362212    1.778e-03    0.018979    0.000000    0.000000    0.000000
     5        -0.227485655833761    7.375e-04    0.018950    0.000000    0.000000    0.000000
     6        -0.227489162075592    2.433e-04    0.018916    0.000000    0.000000    0.000000
     7        -0.227491395589970    9.285e-05    0.018905    0.000000    0.000000    0.000000
     8        -0.227491232053317    3.242e-05    0.018904    0.000000    0.000000    0.000000
     9        -0.227491196368857    1.086e-05    0.018904    0.000000    0.000000    0.000000
    10        -0.227491315140287    4.008e-06    0.018904    0.000000    0.000000    0.000000
    11        -0.227491251954331    1.356e-06    0.018905    0.000000    0.000000    0.000000
    12        -0.227491234593505    4.069e-07    0.018905    0.000000    0.000000    0.000000
    13        -0.227491224214974    1.121e-07    0.018905    0.000000    0.000000    0.000000
    14        -0.227491223846585    3.371e-08    0.018905    0.000000    0.000000    0.000000
    15        -0.227491223801134    1.285e-08    0.018905    0.000000    0.000000    0.000000
    16        -0.227491223725033    5.798e-09    0.018905    0.000000    0.000000    0.000000
    17        -0.227491223623485    2.606e-09    0.018905    0.000000    0.000000    0.000000
    18        -0.227491223559181    1.080e-09    0.018905    0.000000    0.000000    0.000000
    19        -0.227491223549135    4.348e-10    0.018905    0.000000    0.000000    0.000000
    20        -0.227491223550095    1.523e-10    0.018905    0.000000    0.000000    0.000000
    21        -0.227491223549300    5.255e-11    0.018905    0.000000    0.000000    0.000000
    22        -0.227491223549384    1.846e-11    0.018905    0.000000    0.000000    0.000000
    23        -0.227491223549362    5.560e-12    0.018905    0.000000    0.000000    0.000000
    24        -0.227491223549401    1.841e-12    0.018905    0.000000    0.000000    0.000000
    25        -0.227491223549408    5.305e-13    0.018905    0.000000    0.000000    0.000000

    Iterations converged.


    Largest TIA Amplitudes:
              0  14         0.0096828799
              0   0         0.0088556809
              0   6        -0.0085265954
              0  15         0.0083300408
              0  17        -0.0078890919
              0   5        -0.0078091164
              0   7        -0.0076440134
              0   2        -0.0073276314
              2  44         0.0062152007
              1  17         0.0058376007

    Largest Tia Amplitudes:
              1   1         0.0107668957
              2  63        -0.0105729664
              0   0        -0.0098881199
              0   2         0.0096909952
              2  62        -0.0093044807
              2  66        -0.0086879447
              0  17         0.0082445990
              0   7         0.0081277088
              1   0        -0.0081142551
              1   4         0.0079206613

    Largest TIJAB Amplitudes:
      2   1  47   9         0.0084457180
      3   2  65  47        -0.0080621239
      3   2  33   6        -0.0079753061
      2   1  51  17         0.0077172643
      3   2  62  47         0.0071081880
      3   1  65   9         0.0070461287
      2   1  46   7        -0.0069658304
      3   2  61  47         0.0069474922
      2   1  48   9        -0.0067015253
      2   1  44   9        -0.0066476233

    Largest Tijab Amplitudes:
      1   0  47  44         0.0081448925
      2   0  44  33         0.0077547437
      1   0  52  44        -0.0074124603
      2   1  63   6         0.0071289101
      2   1  66   9         0.0071233100
      2   1  66   6         0.0068305991
      2   1  67   6        -0.0063845727
      2   1  62   9         0.0063500911
      2   1  66   1         0.0061645646
      2   0  44  36         0.0060795355

    Largest TIjAb Amplitudes:
      3   2  65  66        -0.0192508225
      1   1   9   9        -0.0178840563
      3   2  62  66         0.0174876537
      3   2  65  63        -0.0173792842
      2   0   0  44         0.0165083137
      3   2  62  63         0.0162364700
      2   0   6  44        -0.0161137868
      2   0  14  44         0.0154334980
      3   2  61  66         0.0153962369
      1   0  51  44        -0.0148952719

    SCF energy       (wfn)                    =  -75.704905982650530
    Reference energy (file100)                =  -75.704905982650402

    Opposite-spin MP2 correlation energy      =   -0.158118234347722
    Same-spin MP2 correlation energy          =   -0.045394609313745
    MP2 correlation energy                    =   -0.207116576108198
      * MP2 total energy                      =  -75.912022558758594
    CC3 correlation energy                    =   -0.227491223549408
      * CC3 total energy                      =  -75.932397206199809


*** tstop() called on node6 at Sat Nov  5 10:22:02 2022
Module time:
	user time   =     586.71 seconds =       9.78 minutes
	system time =      47.09 seconds =       0.78 minutes
	total time  =        159 seconds =       2.65 minutes
Total time:
	user time   =     596.95 seconds =       9.95 minutes
	system time =      48.67 seconds =       0.81 minutes
	total time  =        166 seconds =       2.77 minutes

*** tstart() called on node6
*** at Sat Nov  5 10:22:02 2022


			**************************
			*                        *
			*         CCHBAR         *
			*                        *
			**************************

Dots of (HeT1)c in names "CC3 Wxxx" in CC3_HET1 
Wamef terms
	<WAMEF|WAMEF> =   13.2953232685
	<Wamef|Wamef> =   10.8483789024
	<WAmEf|WAmEf> =    9.3113232286
	<WaMeF|WaMeF> =   12.6539075436
Wmnie terms
	<WMNIE (M>N,IE)|WMNIE> =    0.7439814388
	<Wmnie (m>n,ie)|Wmnie> =    0.3277089468
	<WMnIe (Mn,Ie)|WMnIe> =    0.7251167931
	<WmNiE (mN,iE)|WmNiE> =    0.6135877323
	<WMNIE(M>N,EI)|WMNIE(M>N,EI)> =    0.7439814388
	<Wmnie(m>n,ei)|Wmnie(m>n,ei)> =    0.3277089468
	<WMnIe(Mn,eI)|WMnIe(Mn,eI)> =    0.7251167931
	<WmNiE(mN,Ei)|WmNiE(mN,Ei)> =    0.6135877323
Doing Wmnij terms.
	<WMNIJ (M>N,I>J)|WMNIJ> =    9.2271049125
	<Wmnij (m>n,i>j)|Wmnij> =    4.0462438050
	<WMnIj (Mn,Ij)|WMnIj> =    6.3903884096
Doing Wmbij terms.
	<WMBIJ (MB,I>J)|WMBIJ> =    0.7493318564
	<WMBIJ (I>J,MB)|WMBIJ> =    0.7493318564
	<Wmbij (mb,i>j)|Wmbij> =    0.3335212292
	<Wmbij (i>j,mb)|Wmbij> =    0.3335212292
	<WMbIj (Mb,Ij)|WMbIj> =    0.7285640743
	<WMbIj (Ij,Mb)|WMbIj> =    0.7285640743
	<WmBiJ (mB,iJ)|WmBiJ> =    0.6169510328
	<WmBiJ (iJ,mB)|WmBiJ> =    0.6169510328
Doing Wmbej terms.
	<WMBEJ (all ME,JB)|WMBEJ> =   81.8686915219
	<Wmbej|Wmbej> =   61.9704295464
	<WMbEj|WMbEj> =    1.0297453465
	<WmBeJ|WmBeJ> =    1.0392497353
	<WMbeJ|WMbeJ> =   94.8931255795
	<WmBEj|WmBEj> =   67.9590186487
Doing Wabei terms.
	<WABEI (IE,B>A) |WABEI> =   13.3491244560
	<Wabei (ie,b>a)|Wabei> =   10.9470692209
	<WAbEi (iE,bA)|WAbEi> =    9.3862375756
	<WAbEi (iE,Ba)|WAbEi> =   12.6890579321

*** tstop() called on node6 at Sat Nov  5 10:22:04 2022
Module time:
	user time   =       4.10 seconds =       0.07 minutes
	system time =       0.75 seconds =       0.01 minutes
	total time  =          2 seconds =       0.03 minutes
Total time:
	user time   =     601.06 seconds =      10.02 minutes
	system time =      49.42 seconds =       0.82 minutes
	total time  =        168 seconds =       2.80 minutes

*** tstart() called on node6
*** at Sat Nov  5 10:22:04 2022


	**********************************************************
	*  CCEOM: An Equation of Motion Coupled Cluster Program  *
	**********************************************************

	Nuclear Rep. energy (wfn)     =    8.792211931964061
	SCF energy          (wfn)     =  -75.704905982650530
	Reference energy    (file100) =  -75.704905982650402
	CC3 energy          (file100) =   -0.227491223549408

	Input parameters:
	-----------------
	Reference wfn   = ROHF changed to UHF for Semicanonical Orbitals
	Reference EOM wfn=     UHF
	Memory (Mbytes) =  31950.0
	ABCD            =     NEW
	Cache Level     =    0
	Cache Type      =     LRU
	T3 Ws incore  =      No
	Num. of threads =     4
	Local CC        =     No


	CCEOM parameters:
	-----------------
	States sought per irrep     = A1 0, A2 0, B1 1, B2 0,
	Max. number of iterations   =   500
	Vectors stored per root     =    12
	Print HbarSS iterations?    =     0
	Excitation range for HBarSS =     2
	Eigenvalue tolerance        = 1.0e-06
	Eigenvalue toleranceSS      = 1.0e-06
	Residual vector tolerance   = 1.0e-08
	Residual vector toleranceSS = 1.0e-06
	Complex tolerance           = 1.0e-12
	Root for properties         =     1
	Sym of state for properties =     A1
	Guess vectors taken from    = SINGLES
	Restart EOM CC3             = NO
	Collapse with last vector   = YES


Symmetry of ground state: B1
Symmetry of excited state: B1
Symmetry of right eigenvector: A1
Obtaining initial guess from singles-singles block of Hbar...Done.

Iter=1    L=1     Root    EOM Energy     Delta E   Res. Norm    Conv?
                     1   0.5789603790   5.79e-01    5.14e-01      N
Iter=2    L=2     Root    EOM Energy     Delta E   Res. Norm    Conv?
                     1   0.4873158431  -9.16e-02    9.71e-02      N
Iter=3    L=3     Root    EOM Energy     Delta E   Res. Norm    Conv?
                     1   0.4811383181  -6.18e-03    6.34e-02      N
Iter=4    L=4     Root    EOM Energy     Delta E   Res. Norm    Conv?
                     1   0.4779360183  -3.20e-03    4.62e-02      N
Iter=5    L=5     Root    EOM Energy     Delta E   Res. Norm    Conv?
                     1   0.4767224503  -1.21e-03    2.70e-02      N
Iter=6    L=6     Root    EOM Energy     Delta E   Res. Norm    Conv?
                     1   0.4762921842  -4.30e-04    1.35e-02      N
Iter=7    L=7     Root    EOM Energy     Delta E   Res. Norm    Conv?
                     1   0.4761554838  -1.37e-04    8.70e-03      N
Iter=8    L=8     Root    EOM Energy     Delta E   Res. Norm    Conv?
                     1   0.4760804834  -7.50e-05    6.25e-03      N
Iter=9    L=9     Root    EOM Energy     Delta E   Res. Norm    Conv?
                     1   0.4760442852  -3.62e-05    3.85e-03      N
Iter=10   L=10    Root    EOM Energy     Delta E   Res. Norm    Conv?
                     1   0.4760332606  -1.10e-05    2.95e-03      N
Iter=11   L=11    Root    EOM Energy     Delta E   Res. Norm    Conv?
                     1   0.4760233868  -9.87e-06    2.40e-03      N
Iter=12   L=12    Root    EOM Energy     Delta E   Res. Norm    Conv?
                     1   0.4760197227  -3.66e-06    1.39e-03      N
Iter=13   L=2     Root    EOM Energy     Delta E   Res. Norm    Conv?
                     1   0.4760197227  -5.55e-16    1.39e-03      N
Iter=14   L=3     Root    EOM Energy     Delta E   Res. Norm    Conv?
                     1   0.4760189527  -7.70e-07    6.74e-04      N
Iter=15   L=4     Root    EOM Energy     Delta E   Res. Norm    Conv?
                     1   0.4760192078   2.55e-07    3.98e-04      N
Iter=16   L=5     Root    EOM Energy     Delta E   Res. Norm    Conv?
                     1   0.4760184980  -7.10e-07    2.27e-04      N
Iter=17   L=6     Root    EOM Energy     Delta E   Res. Norm    Conv?
                     1   0.4760180889  -4.09e-07    9.72e-05      N
Iter=18   L=7     Root    EOM Energy     Delta E   Res. Norm    Conv?
                     1   0.4760181864   9.75e-08    3.75e-05      N
Iter=19   L=8     Root    EOM Energy     Delta E   Res. Norm    Conv?
                     1   0.4760181420  -4.44e-08    1.49e-05      N
Iter=20   L=9     Root    EOM Energy     Delta E   Res. Norm    Conv?
                     1   0.4760181366  -5.37e-09    6.74e-06      N
Iter=21   L=10    Root    EOM Energy     Delta E   Res. Norm    Conv?
                     1   0.4760181344  -2.19e-09    2.76e-06      N
Iter=22   L=11    Root    EOM Energy     Delta E   Res. Norm    Conv?
                     1   0.4760181370   2.58e-09    1.03e-06      N
Iter=23   L=12    Root    EOM Energy     Delta E   Res. Norm    Conv?
                     1   0.4760181408   3.87e-09    4.50e-07      N
Iter=24   L=2     Root    EOM Energy     Delta E   Res. Norm    Conv?
                     1   0.4760181408  -6.27e-13    4.50e-07      N
Iter=25   L=3     Root    EOM Energy     Delta E   Res. Norm    Conv?
                     1   0.4760181415   6.22e-10    3.06e-07      N
Iter=26   L=4     Root    EOM Energy     Delta E   Res. Norm    Conv?
                     1   0.4760181418   3.29e-10    2.20e-07      N
Iter=27   L=5     Root    EOM Energy     Delta E   Res. Norm    Conv?
                     1   0.4760181425   6.98e-10    1.42e-07      N
Iter=28   L=6     Root    EOM Energy     Delta E   Res. Norm    Conv?
                     1   0.4760181427   2.18e-10    8.88e-08      N
Iter=29   L=7     Root    EOM Energy     Delta E   Res. Norm    Conv?
                     1   0.4760181429   2.03e-10    5.80e-08      N
Iter=30   L=8     Root    EOM Energy     Delta E   Res. Norm    Conv?
                     1   0.4760181429   1.08e-11    4.04e-08      N
Iter=31   L=9     Root    EOM Energy     Delta E   Res. Norm    Conv?
                     1   0.4760181429  -1.91e-11    2.52e-08      N
Iter=32   L=10    Root    EOM Energy     Delta E   Res. Norm    Conv?
                     1   0.4760181429   3.34e-12    1.49e-08      N
Iter=33   L=11    Root    EOM Energy     Delta E   Res. Norm    Conv?
                     1   0.4760181429  -2.95e-11    9.61e-09      Y
Completed EOM_CCSD
Collapsing to only 1 vector(s).
Copying root 1 to CC3_MISC file.
Setting initial CC3 eigenvalue to    0.4760181429
Iter=1    L=1     Root    EOM Energy     Delta E   Res. Norm    Conv?
                     1   0.4707368155  -5.28e-03    4.36e-02      N
Iter=2    L=2     Root    EOM Energy     Delta E   Res. Norm    Conv?
                     1   0.4691871112  -1.55e-03    2.70e-02      N
Iter=3    L=3     Root    EOM Energy     Delta E   Res. Norm    Conv?
                     1   0.4677406967  -1.45e-03    4.25e-02      N
Iter=4    L=4     Root    EOM Energy     Delta E   Res. Norm    Conv?
                     1   0.4659246197  -1.82e-03    2.51e-02      N
Iter=5    L=5     Root    EOM Energy     Delta E   Res. Norm    Conv?
                     1   0.4655299391  -3.95e-04    1.30e-02      N
Iter=6    L=6     Root    EOM Energy     Delta E   Res. Norm    Conv?
                     1   0.4653983080  -1.32e-04    1.25e-02      N
Iter=7    L=7     Root    EOM Energy     Delta E   Res. Norm    Conv?
                     1   0.4652487290  -1.50e-04    9.41e-03      N
Iter=8    L=8     Root    EOM Energy     Delta E   Res. Norm    Conv?
                     1   0.4651656123  -8.31e-05    5.33e-03      N
Iter=9    L=9     Root    EOM Energy     Delta E   Res. Norm    Conv?
                     1   0.4651599378  -5.67e-06    2.38e-03      N
Iter=10   L=10    Root    EOM Energy     Delta E   Res. Norm    Conv?
                     1   0.4651589201  -1.02e-06    1.19e-03      N
Collapsing to 2 vector(s).
Change in CC3 energy from last iterated value   -0.0108592228
Iter=11   L=2     Root    EOM Energy     Delta E   Res. Norm    Conv?
                     1   0.4651865409   2.76e-05    1.19e-03      N
Iter=12   L=3     Root    EOM Energy     Delta E   Res. Norm    Conv?
                     1   0.4651843523  -2.19e-06    7.81e-04      N
Iter=13   L=4     Root    EOM Energy     Delta E   Res. Norm    Conv?
                     1   0.4651841124  -2.40e-07    4.87e-04      N
Iter=14   L=5     Root    EOM Energy     Delta E   Res. Norm    Conv?
                     1   0.4651844968   3.84e-07    2.26e-04      N
Iter=15   L=6     Root    EOM Energy     Delta E   Res. Norm    Conv?
                     1   0.4651838681  -6.29e-07    1.20e-04      N
Iter=16   L=7     Root    EOM Energy     Delta E   Res. Norm    Conv?
                     1   0.4651838538  -1.43e-08    7.42e-05      N
Iter=17   L=8     Root    EOM Energy     Delta E   Res. Norm    Conv?
                     1   0.4651841583   3.04e-07    5.43e-05      N
Iter=18   L=9     Root    EOM Energy     Delta E   Res. Norm    Conv?
                     1   0.4651842216   6.33e-08    4.63e-05      N
Iter=19   L=10    Root    EOM Energy     Delta E   Res. Norm    Conv?
                     1   0.4651841968  -2.48e-08    3.35e-05      N
Collapsing to 2 vector(s).
Change in CC3 energy from last iterated value    0.0000252767
Iter=20   L=2     Root    EOM Energy     Delta E   Res. Norm    Conv?
                     1   0.4651841015  -9.53e-08    3.31e-05      N
Iter=21   L=3     Root    EOM Energy     Delta E   Res. Norm    Conv?
                     1   0.4651841343   3.28e-08    1.83e-05      N
Iter=22   L=4     Root    EOM Energy     Delta E   Res. Norm    Conv?
                     1   0.4651841530   1.88e-08    9.92e-06      N
Iter=23   L=5     Root    EOM Energy     Delta E   Res. Norm    Conv?
                     1   0.4651841636   1.06e-08    4.59e-06      N
Iter=24   L=6     Root    EOM Energy     Delta E   Res. Norm    Conv?
                     1   0.4651841651   1.47e-09    1.96e-06      N
Iter=25   L=7     Root    EOM Energy     Delta E   Res. Norm    Conv?
                     1   0.4651841645  -6.56e-10    9.95e-07      N
Iter=26   L=8     Root    EOM Energy     Delta E   Res. Norm    Conv?
                     1   0.4651841631  -1.36e-09    4.99e-07      N
Iter=27   L=9     Root    EOM Energy     Delta E   Res. Norm    Conv?
                     1   0.4651841631   4.95e-11    2.67e-07      N
Iter=28   L=10    Root    EOM Energy     Delta E   Res. Norm    Conv?
                     1   0.4651841633   1.23e-10    1.85e-07      N
Collapsing to 2 vector(s).
Change in CC3 energy from last iterated value   -0.0000000335
Iter=29   L=2     Root    EOM Energy     Delta E   Res. Norm    Conv?
                     1   0.4651841634   1.26e-10    1.85e-07      N
Iter=30   L=3     Root    EOM Energy     Delta E   Res. Norm    Conv?
                     1   0.4651841634  -3.83e-11    1.15e-07      N
Iter=31   L=4     Root    EOM Energy     Delta E   Res. Norm    Conv?
                     1   0.4651841634   2.96e-12    6.09e-08      N
Iter=32   L=5     Root    EOM Energy     Delta E   Res. Norm    Conv?
                     1   0.4651841634   1.21e-11    2.60e-08      N
Iter=33   L=6     Root    EOM Energy     Delta E   Res. Norm    Conv?
                     1   0.4651841634   2.38e-13    1.15e-08      N
Iter=34   L=7     Root    EOM Energy     Delta E   Res. Norm    Conv?
                     1   0.4651841634   4.56e-12    5.57e-09      Y
Collapsing to only 1 vector(s).
Change in CC3 energy from last iterated value    0.0000000001

Procedure converged for 1 root(s).
Energy written to CC_INFO:Etot  -75.4672130428
States per irrep written to CC_INFO.
<R|R> =   0.9999999999999998
EOM CC3 R0 for root 0 =  -0.00400438239

Final Energetic Summary for Converged Roots of Irrep B1
                     Excitation Energy              Total Energy
                (eV)     (cm^-1)     (au)             (au)
EOM State 1     12.658   102096.1   0.4651841634   -75.467213042827

Largest components of excited wave function #1:
 RIA (libdpd indices) : (cscf notation)
         1 >   0      :       3a1 >    4a1 :    0.4932823337
         1 >   2      :       3a1 >    6a1 :   -0.1731202433
         1 >   5      :       3a1 >    9a1 :   -0.1362056410
         1 >   1      :       3a1 >    5a1 :    0.1269223701
         1 >   4      :       3a1 >    8a1 :    0.0513633908
 Ria (libdpd indices) : (cscf notation)
         1 >   0      :       3a1 >    4a1 :   -0.5835452044
         1 >   2      :       3a1 >    6a1 :    0.2326030297
         1 >   5      :       3a1 >    9a1 :    0.1710860752
         1 >   1      :       3a1 >    5a1 :    0.1391260994
         1 >   4      :       3a1 >    8a1 :    0.0587535696
 RIjAb (libdpd indices)     : (cscf notation)
        0   1 >   0   0     :    1b1    3a1 >    4a1    1b1 :   -0.3349712318
        0   1 >   2   0     :    1b1    3a1 >    6a1    1b1 :    0.1177681072
        0   1 >   0   1     :    1b1    3a1 >    4a1    2b1 :    0.0957614543
        0   1 >   5   0     :    1b1    3a1 >    9a1    1b1 :    0.0930521794
        0   1 >   1   0     :    1b1    3a1 >    5a1    1b1 :   -0.0839961590
 RIJAB (libdpd indices)     : (cscf notation)
        0   1 >   3   0     :    1b1    3a1 >    5b1    4a1 :    0.0199906673
        0   1 >   0   0     :    1b1    3a1 >    2b1    4a1 :   -0.0193891861
        0   1 >   4   0     :    1b2    3a1 >    6b2    4a1 :    0.0190842366
        0   1 >   1   0     :    1b2    3a1 >    3b2    4a1 :   -0.0183463230
        0   1 >   0   0     :    1b2    3a1 >    2b2    4a1 :   -0.0169624018
 Rijab (libdpd indices)     : (cscf notation)
        0   1 >   4   0     :    1b2    3a1 >    6b2    4a1 :   -0.0241097405
        0   1 >   1   0     :    1b2    3a1 >    3b2    4a1 :   -0.0234161836
        0   1 >   0   0     :    1b2    3a1 >    2b2    4a1 :   -0.0204769838
        0   1 >   8   0     :    1b2    3a1 >   10b2    4a1 :    0.0135275359
        1   0 >   5   0     :    3a1    2a1 >    9a1    4a1 :   -0.0096272552

	Putting into environment energy for root of R irrep 1 and root 1.
	Putting into environment CURRENT ENERGY:              -75.4672130428

	Total # of sigma evaluations: 68

*** tstop() called on node6 at Sat Nov  5 10:30:30 2022
Module time:
	user time   =    1878.90 seconds =      31.32 minutes
	system time =     142.39 seconds =       2.37 minutes
	total time  =        506 seconds =       8.43 minutes
Total time:
	user time   =    2479.97 seconds =      41.33 minutes
	system time =     191.81 seconds =       3.20 minutes
	total time  =        674 seconds =      11.23 minutes

    Psi4 stopped on: Saturday, 05 November 2022 10:30AM
    Psi4 wall time for execution: 0:11:13.49

*** Psi4 exiting successfully. Buy a developer a beer!
