
    -----------------------------------------------------------------------
          Psi4: An Open-Source Ab Initio Electronic Structure Package
                               Psi4 1.2 release

                         Git: Rev {HEAD} 9d4a61c 


    R. M. Parrish, L. A. Burns, D. G. A. Smith, A. C. Simmonett,
    A. E. DePrince III, E. G. Hohenstein, U. Bozkaya, A. Yu. Sokolov,
    R. Di Remigio, R. M. Richard, J. F. Gonthier, A. M. James,
    H. R. McAlexander, A. Kumar, M. Saitow, X. Wang, B. P. Pritchard,
    P. Verma, H. F. Schaefer III, K. Patkowski, R. A. King, E. F. Valeev,
    F. A. Evangelista, J. M. Turney, T. D. Crawford, and C. D. Sherrill,
    J. Chem. Theory Comput. 13(7) pp 3185--3197 (2017).
    (doi: 10.1021/acs.jctc.7b00174)


                         Additional Contributions by
    P. Kraus, H. Kruse, M. H. Lechner, M. C. Schieber, and R. A. Shaw

    -----------------------------------------------------------------------


    Psi4 started on: Saturday, 05 November 2022 10:19AM

    Process ID: 39458
    Host:       node6
    PSIDATADIR: /home/qc/psi4conda/share/psi4
    Memory:     500.0 MiB
    Threads:    4
    
  ==> Input File <==

--------------------------------------------------------------------------
#h2o SPECIAL eom-cc3
memory 31950 mb

molecule h2o{
1 2
H        0.0000000000       -1.5324132846       -0.9684397698
O        0.0000000000       -0.0093708857        0.1272455447
H        0.0000000000        1.5417841703       -0.9750699649

units bohr
}
 
set globals {
 reference rohf
 basis aug-cc-pvtz-dk
 freeze_core true
 cachelevel=0
 relativistic x2c
 maxiter=500
 dertype none
 ints_tolerance 20
 roots_per_irrep = [0,1]
}

set scf d_convergence 12
set ccenergy r_convergence 12
set cceom r_convergence 8

energy('eom-cc3')--------------------------------------------------------------------------

  Memory set to  29.756 GiB by Python driver.

*** tstart() called on node6
*** at Sat Nov  5 10:19:16 2022

   => Loading Basis Set <=

    Name: AUG-CC-PVTZ-DK
    Role: ORBITAL
    Keyword: BASIS
    atoms 1, 3 entry H          line    45 file /home/qc/psi4conda/share/psi4/basis/aug-cc-pvtz-dk.gbs 
    atoms 2    entry O          line   324 file /home/qc/psi4conda/share/psi4/basis/aug-cc-pvtz-dk.gbs 


         ---------------------------------------------------------
                                   SCF
            by Justin Turney, Rob Parrish, Andy Simmonett
                             and Daniel Smith
                             ROHF Reference
                        4 Threads,  30469 MiB Core
         ---------------------------------------------------------

  ==> Geometry <==

    Molecular point group: cs
    Full point group: Cs

    Geometry (in Bohr), charge = 1, multiplicity = 2:

       Center              X                  Y                   Z               Mass       
    ------------   -----------------  -----------------  -----------------  -----------------
         H            1.524615511128     0.972690822659     0.000000000000     1.007825032070
         O            0.001573112228    -0.122994491841     0.000000000000    15.994914619560
         H           -1.549581943772     0.979321017759     0.000000000000     1.007825032070

  Running in cs symmetry.

  Rotational constants: A =     27.85066  B =     12.63842  C =      8.69342 [cm^-1]
  Rotational constants: A = 834941.63550  B = 378890.40115  C = 260622.03143 [MHz]
  Nuclear repulsion =    8.793210655911754

  Charge       = 1
  Multiplicity = 2
  Electrons    = 9
  Nalpha       = 5
  Nbeta        = 4

  ==> Algorithm <==

  SCF Algorithm Type is PK.
  DIIS enabled.
  MOM disabled.
  Fractional occupation disabled.
  Guess Type is GWH.
  Energy threshold   = 1.00e-08
  Density threshold  = 1.00e-12
  Integral threshold = 1.00e-20

  ==> Primary Basis <==

  Basis Set: AUG-CC-PVTZ-DK
    Blend: AUG-CC-PVTZ-DK
    Number of shells: 32
    Number of basis function: 92
    Number of Cartesian functions: 105
    Spherical Harmonics?: true
    Max angular momentum: 3

   => Loading Basis Set <=

    Name: (AUG-CC-PVTZ-DK AUX)
    Role: DECON
    Keyword: BASIS_RELATIVISTIC
    atoms 1, 3 entry H          line    45 file /home/qc/psi4conda/share/psi4/basis/aug-cc-pvtz-dk.gbs func decontract
    atoms 2    entry O          line   324 file /home/qc/psi4conda/share/psi4/basis/aug-cc-pvtz-dk.gbs func decontract

  ==> Pre-Iterations <==

   -------------------------------------------------------
    Irrep   Nso     Nmo     Nalpha   Nbeta   Ndocc  Nsocc
   -------------------------------------------------------
     A'        62      62       0       0       0       0
     A"        30      30       0       0       0       0
   -------------------------------------------------------
    Total      92      92       5       4       4       1
   -------------------------------------------------------

 OEINTS: Using relativistic (X2C) overlap, kinetic, and potential integrals.
         ------------------------------------------------------------
         Spin-Free X2C Integrals at the One-Electron Level (SFX2C-1e)
                 by Prakash Verma and Francesco A. Evangelista
         ------------------------------------------------------------

  ==> X2C Options <==

    Computational Basis: AUG-CC-PVTZ-DK
    X2C Basis: (AUG-CC-PVTZ-DK AUX)
    The X2C Hamiltonian will be computed in the X2C Basis

    Comparing only 62 out of 76 elements of H_Dirac

    Comparing only 30 out of 32 elements of H_Dirac

    The 1-norm of |H_X2C - H_Dirac| is: 6.761920947361

    WARNING: The X2C and Dirac Hamiltonians have substatially different eigenvalues!
             This is probably caused by the recontraction of the basis set.

  ==> Integral Setup <==

  Using in-core PK algorithm.
   Calculation information:
      Number of atoms:                   3
      Number of AO shells:              32
      Number of primitives:             52
      Number of atomic orbitals:       105
      Number of basis functions:        92

      Integral cutoff                 1.00e-20
      Number of threads:                 4

  Performing in-core PK
  Using 18305562 doubles for integral storage.
  We computed 171364 shell quartets total.
  Whereas there are 139656 unique shell quartets.
    22.70 percent of shell quartets recomputed by reordering.

  ==> DiskJK: Disk-Based J/K Matrices <==

    J tasked:                  Yes
    K tasked:                  Yes
    wK tasked:                  No
    Memory (MB):             22852
    Schwarz Cutoff:          1E-20

    OpenMP threads:              4

  Minimum eigenvalue in the overlap matrix is 4.0996165220E-04.
  Using Symmetric Orthogonalization.

  SCF Guess: Generalized Wolfsberg-Helmholtz.

  ==> Iterations <==

                        Total Energy        Delta E     RMS |[F,P]|

    Occupation by irrep:
             Ap   App 
    DOCC [     4,    0 ]
    SOCC [     1,    0 ]

   @ROHF iter   1:   -70.09386569482329   -7.00939e+01   1.12916e-01 
    Occupation by irrep:
             Ap   App 
    DOCC [     4,    0 ]
    SOCC [     0,    1 ]

   @ROHF iter   2:   -72.14748270921540   -2.05362e+00   4.76710e-02 DIIS
   @ROHF iter   3:   -75.07953603355232   -2.93205e+00   2.94435e-02 DIIS
   @ROHF iter   4:   -75.66399536035853   -5.84459e-01   6.65734e-03 DIIS
   @ROHF iter   5:   -75.70457473546902   -4.05794e-02   3.54023e-04 DIIS
   @ROHF iter   6:   -75.70479300319072   -2.18268e-04   7.88154e-05 DIIS
   @ROHF iter   7:   -75.70480439111374   -1.13879e-05   1.52443e-05 DIIS
   @ROHF iter   8:   -75.70480480841404   -4.17300e-07   2.10712e-06 DIIS
   @ROHF iter   9:   -75.70480481790806   -9.49402e-09   6.72447e-07 DIIS
   @ROHF iter  10:   -75.70480481870581   -7.97755e-10   1.61815e-07 DIIS
   @ROHF iter  11:   -75.70480481875678   -5.09743e-11   3.04488e-08 DIIS
   @ROHF iter  12:   -75.70480481875873   -1.94689e-12   9.17450e-09 DIIS
   @ROHF iter  13:   -75.70480481875900   -2.70006e-13   1.45812e-09 DIIS
   @ROHF iter  14:   -75.70480481875899    1.42109e-14   1.44671e-10 DIIS
   @ROHF iter  15:   -75.70480481875900   -1.42109e-14   2.25261e-11 DIIS
   @ROHF iter  16:   -75.70480481875907   -7.10543e-14   4.52087e-12 DIIS
   @ROHF iter  17:   -75.70480481875907    0.00000e+00   8.95971e-13 DIIS

  ==> Post-Iterations <==

    Orbital Energies [Eh]
    ---------------------

    Doubly Occupied:                                                      

       1Ap   -21.118540     2Ap    -1.801446     3Ap    -1.174585  
       4Ap    -1.048952  

    Singly Occupied:                                                      

       1App   -0.686380  

    Virtual:                                                              

       5Ap    -0.181351     6Ap    -0.116695     7Ap    -0.060980  
       2App   -0.057656     8Ap    -0.041925     9Ap    -0.027492  
      10Ap     0.010394    11Ap     0.018059     3App    0.036701  
       4App    0.069189    12Ap     0.072002    13Ap     0.162927  
      14Ap     0.177838    15Ap     0.194701    16Ap     0.322933  
      17Ap     0.348144    18Ap     0.408726     5App    0.423125  
       6App    0.423454    19Ap     0.515937     7App    0.553855  
      20Ap     0.583244    21Ap     0.596948     8App    0.606921  
       9App    0.623789    22Ap     0.661246    23Ap     0.666109  
      24Ap     0.727530    25Ap     0.742515    10App    0.747712  
      26Ap     0.827918    27Ap     0.861939    11App    0.872229  
      28Ap     0.964634    12App    1.163377    13App    1.222723  
      29Ap     1.241383    30Ap     1.414244    31Ap     1.442925  
      32Ap     1.578291    33Ap     1.683558    14App    1.832840  
      15App    1.898221    34Ap     1.945059    35Ap     1.981255  
      16App    2.004750    36Ap     2.051341    37Ap     2.096249  
      17App    2.304991    38Ap     2.313483    39Ap     2.321531  
      18App    2.452079    40Ap     2.483265    41Ap     3.163115  
      42Ap     3.304737    19App    3.574719    20App    3.584320  
      43Ap     3.767719    44Ap     3.779330    21App    3.896331  
      22App    3.964991    23App    3.968110    45Ap     4.047610  
      46Ap     4.067841    47Ap     4.204849    48Ap     4.279093  
      49Ap     4.608193    24App    4.630706    50Ap     4.737660  
      51Ap     4.828837    25App    4.920965    52Ap     5.217220  
      53Ap     5.609544    54Ap     6.062912    26App    6.203744  
      55Ap     6.295985    27App    6.596192    28App    6.703831  
      29App    6.718507    56Ap     6.776759    57Ap     6.830576  
      30App    6.850730    58Ap     6.968188    59Ap     7.310498  
      60Ap     7.402484    61Ap     8.082854    62Ap    14.111848  

    Final Occupation by Irrep:
             Ap   App 
    DOCC [     4,    0 ]
    SOCC [     0,    1 ]

  Energy converged.

  @ROHF Final Energy:   -75.70480481875907

   => Energetics <=

    Nuclear Repulsion Energy =              8.7932106559117535
    One-Electron Energy =                -117.6007331435255736
    Two-Electron Energy =                  33.1027176688547513
    Total Energy =                        -75.7048048187590723



Properties will be evaluated at   0.000000,   0.000000,   0.000000 [a0]

Properties computed using the SCF density matrix

  Nuclear Dipole Moment: [e a0]
     X:    -0.0124      Y:     0.9681      Z:     0.0000

  Electronic Dipole Moment: [e a0]
     X:    -0.0037      Y:     0.0032      Z:     0.0000

  Dipole Moment: [e a0]
     X:    -0.0161      Y:     0.9712      Z:     0.0000     Total:     0.9714

  Dipole Moment: [D]
     X:    -0.0410      Y:     2.4686      Z:     0.0000     Total:     2.4690


*** tstop() called on node6 at Sat Nov  5 10:19:18 2022
Module time:
	user time   =       5.55 seconds =       0.09 minutes
	system time =       0.22 seconds =       0.00 minutes
	total time  =          2 seconds =       0.03 minutes
Total time:
	user time   =       5.55 seconds =       0.09 minutes
	system time =       0.22 seconds =       0.00 minutes
	total time  =          2 seconds =       0.03 minutes
   => Loading Basis Set <=

    Name: (AUG-CC-PVTZ-DK AUX)
    Role: DECON
    Keyword: BASIS_RELATIVISTIC
    atoms 1, 3 entry H          line    45 file /home/qc/psi4conda/share/psi4/basis/aug-cc-pvtz-dk.gbs func decontract
    atoms 2    entry O          line   324 file /home/qc/psi4conda/share/psi4/basis/aug-cc-pvtz-dk.gbs func decontract

 MINTS: Wrapper to libmints.
   by Justin Turney

   Calculation information:
      Number of threads:                 4
      Number of atoms:                   3
      Number of AO shells:              32
      Number of SO shells:              32
      Number of primitives:             52
      Number of atomic orbitals:       105
      Number of basis functions:        92

      Number of irreps:                  2
      Integral cutoff                 1.00e-20
      Number of functions per irrep: [  62   30 ]

 OEINTS: Using relativistic (X2C) overlap, kinetic, and potential integrals.
         ------------------------------------------------------------
         Spin-Free X2C Integrals at the One-Electron Level (SFX2C-1e)
                 by Prakash Verma and Francesco A. Evangelista
         ------------------------------------------------------------

  ==> X2C Options <==

    Computational Basis: AUG-CC-PVTZ-DK
    X2C Basis: (AUG-CC-PVTZ-DK AUX)
    The X2C Hamiltonian will be computed in the X2C Basis

    Comparing only 62 out of 76 elements of H_Dirac

    Comparing only 30 out of 32 elements of H_Dirac

    The 1-norm of |H_X2C - H_Dirac| is: 6.761920948120

    WARNING: The X2C and Dirac Hamiltonians have substatially different eigenvalues!
             This is probably caused by the recontraction of the basis set.

 OEINTS: Overlap, kinetic, potential, dipole, and quadrupole integrals
         stored in file 35.

      Computing two-electron integrals...done
      Computed 4405735 non-zero two-electron integrals.
        Stored in file 33.


*** tstart() called on node6
*** at Sat Nov  5 10:19:19 2022


	Wfn Parameters:
	--------------------
	Wavefunction         = CC3
	Number of irreps     = 2
	Number of MOs        = 92
	Number of active MOs = 91
	AO-Basis             = NONE
	Semicanonical        = true
	Reference            = ROHF changed to UHF for semicanonical orbitals
	Print Level          = 1

	IRREP	# MOs	# FZDC	# DOCC	# SOCC	# VIRT	# FZVR
	-----	-----	------	------	------	------	------
	 Ap	   62	    1	    3	    0	    58	    0
	 App	   30	    0	    0	    1	    29	    0
	Transforming integrals...
	IWL integrals will be deleted.
	(OO|OO)...
	Presorting SO-basis two-electron integrals.
	Sorting File: SO Ints (nn|nn) nbuckets = 1
	Transforming the one-electron integrals and constructing Fock matrices
	Starting AA/AB first half-transformation.
	Sorting AA/AB half-transformed integrals.
	Starting BB first half-transformation.
	Sorting BB half-transformed integrals.
	First half integral transformation complete.
	Starting AA second half-transformation.
	Starting AB second half-transformation.
	Starting BB second half-transformation.
	Two-electron integral transformation complete.
	(OO|OV)...
	Starting AA second half-transformation.
	Starting AB second half-transformation.
	Starting BB second half-transformation.
	Two-electron integral transformation complete.
	(OO|VV)...
	Starting AA second half-transformation.
	Starting AB second half-transformation.
	Starting BB second half-transformation.
	Two-electron integral transformation complete.
	(OV|OO)...
	Starting AA/AB first half-transformation.
	Sorting AA/AB half-transformed integrals.
	Starting BB first half-transformation.
	Sorting BB half-transformed integrals.
	First half integral transformation complete.
	Starting AA second half-transformation.
	Starting AB second half-transformation.
	Starting BB second half-transformation.
	Two-electron integral transformation complete.
	(OV|OV)...
	Starting AA second half-transformation.
	Starting AB second half-transformation.
	Starting BB second half-transformation.
	Two-electron integral transformation complete.
	(OV|VV)...
	Starting AA second half-transformation.
	Starting AB second half-transformation.
	Starting BB second half-transformation.
	Two-electron integral transformation complete.
	(VV|OO)...
	Starting AA/AB first half-transformation.
	Sorting AA/AB half-transformed integrals.
	Starting BB first half-transformation.
	Sorting BB half-transformed integrals.
	First half integral transformation complete.
	Starting AA second half-transformation.
	Starting AB second half-transformation.
	Starting BB second half-transformation.
	Two-electron integral transformation complete.
	(VV|OV)...
	Starting AA second half-transformation.
	Starting AB second half-transformation.
	Starting BB second half-transformation.
	Two-electron integral transformation complete.
	(VV|VV)...
	Starting AA second half-transformation.
	Starting AB second half-transformation.
	Starting BB second half-transformation.
	Two-electron integral transformation complete.
	Frozen core energy     =    -61.26805509993266

	Size of irrep 0 of <AB|CD> integrals:      4.239 (MW) /     33.916 (MB)
	Size of irrep 1 of <AB|CD> integrals:      2.829 (MW) /     22.633 (MB)
	Total:                                     7.069 (MW) /     56.549 (MB)

	Size of irrep 0 of <ab|cd> integrals:      4.360 (MW) /     34.878 (MB)
	Size of irrep 1 of <ab|cd> integrals:      3.028 (MW) /     24.221 (MB)
	Total:                                     7.387 (MW) /     59.099 (MB)

	Size of irrep 0 of <Ab|Cd> integrals:     17.927 (MW) /    143.414 (MB)
	Size of irrep 1 of <Ab|Cd> integrals:     11.710 (MW) /     93.681 (MB)
	Total:                                    29.637 (MW) /    237.095 (MB)

	Size of irrep 0 of <IA|BC> integrals:      0.854 (MW) /      6.829 (MB)
	Size of irrep 1 of <IA|BC> integrals:      0.488 (MW) /      3.902 (MB)
	Total:                                     1.341 (MW) /     10.731 (MB)

	Size of irrep 0 of <ia|bc> integrals:      0.742 (MW) /      5.935 (MB)
	Size of irrep 1 of <ia|bc> integrals:      0.313 (MW) /      2.506 (MB)
	Total:                                     1.055 (MW) /      8.441 (MB)

	Size of irrep 0 of <Ia|Bc> integrals:      0.864 (MW) /      6.910 (MB)
	Size of irrep 1 of <Ia|Bc> integrals:      0.506 (MW) /      4.052 (MB)
	Total:                                     1.370 (MW) /     10.962 (MB)

	Size of irrep 0 of <iA|bC> integrals:      0.737 (MW) /      5.894 (MB)
	Size of irrep 1 of <iA|bC> integrals:      0.298 (MW) /      2.382 (MB)
	Total:                                     1.034 (MW) /      8.275 (MB)

	Size of irrep 0 of tIjAb amplitudes:       0.038 (MW) /      0.305 (MB)
	Size of irrep 1 of tIjAb amplitudes:       0.010 (MW) /      0.082 (MB)
	Total:                                     0.048 (MW) /      0.387 (MB)

	Nuclear Rep. energy          =      8.79321065591175
	SCF energy                   =    -75.70480481875907
	One-electron energy          =    -37.30173780429639
	Two-electron (AA) energy     =      3.70067032249315
	Two-electron (BB) energy     =      1.75291244832976
	Two-electron (AB) energy     =      8.61819465873532
	Two-electron energy          =     14.07177742955823
	Reference energy             =    -75.70480481875907

*** tstop() called on node6 at Sat Nov  5 10:19:27 2022
Module time:
	user time   =      19.11 seconds =       0.32 minutes
	system time =       3.34 seconds =       0.06 minutes
	total time  =          8 seconds =       0.13 minutes
Total time:
	user time   =      26.77 seconds =       0.45 minutes
	system time =       3.68 seconds =       0.06 minutes
	total time  =         11 seconds =       0.18 minutes

*** tstart() called on node6
*** at Sat Nov  5 10:19:27 2022

            **************************
            *                        *
            *        CCENERGY        *
            *                        *
            **************************

    Nuclear Rep. energy (wfn)     =    8.793210655911754
    SCF energy          (wfn)     =  -75.704804818759072
    Reference energy    (file100) =  -75.704804818759072

    Input parameters:
    -----------------
    Wave function   =     CC3
    Reference wfn   =     ROHF changed to UHF for Semicanonical Orbitals
    Brueckner       =     No
    Memory (Mbytes) =     31950.0
    Maxiter         =    500
    R_Convergence   =     1.0e-12
    E_Convergence   =     1.0e-06
    Restart         =     Yes
    DIIS            =     Yes
    AO Basis        =     NONE
    ABCD            =     NEW
    Cache Level     =     0
    Cache Type      =     LRU
    Print Level     =     1
    Num. of threads =     4
    # Amps to Print =     10
    Print MP2 Amps? =     No
    Analyze T2 Amps =     No
    Print Pair Ener =     No
    Local CC        =     No
    T3 Ws incore    =     No
    SCS-MP2         =     False
    SCSN-MP2        =     False
    SCS-CCSD        =     False

MP2 correlation energy -0.2071401732933462
                Solving CC Amplitude Equations
                ------------------------------
  Iter             Energy              RMS        T1Diag      D1Diag    New D1Diag    D2Diag
  ----     ---------------------    ---------   ----------  ----------  ----------   --------
     0        -0.207198407782317    0.000e+00    0.013489    0.000000    0.000000    0.000000
     1        -0.222162612027317    3.331e-02    0.016629    0.000000    0.000000    0.000000
     2        -0.227167326568143    1.212e-02    0.018352    0.000000    0.000000    0.000000
     3        -0.227464612005809    4.101e-03    0.018916    0.000000    0.000000    0.000000
     4        -0.227475343408928    1.780e-03    0.018982    0.000000    0.000000    0.000000
     5        -0.227511474340479    7.392e-04    0.018954    0.000000    0.000000    0.000000
     6        -0.227514994196583    2.439e-04    0.018920    0.000000    0.000000    0.000000
     7        -0.227517236075276    9.298e-05    0.018909    0.000000    0.000000    0.000000
     8        -0.227517072334230    3.243e-05    0.018907    0.000000    0.000000    0.000000
     9        -0.227517036338286    1.087e-05    0.018908    0.000000    0.000000    0.000000
    10        -0.227517155467555    4.016e-06    0.018908    0.000000    0.000000    0.000000
    11        -0.227517092260549    1.361e-06    0.018908    0.000000    0.000000    0.000000
    12        -0.227517074870241    4.091e-07    0.018908    0.000000    0.000000    0.000000
    13        -0.227517064435021    1.134e-07    0.018908    0.000000    0.000000    0.000000
    14        -0.227517064080541    3.458e-08    0.018908    0.000000    0.000000    0.000000
    15        -0.227517064048757    1.339e-08    0.018908    0.000000    0.000000    0.000000
    16        -0.227517063977363    6.071e-09    0.018908    0.000000    0.000000    0.000000
    17        -0.227517063876866    2.709e-09    0.018908    0.000000    0.000000    0.000000
    18        -0.227517063812656    1.115e-09    0.018908    0.000000    0.000000    0.000000
    19        -0.227517063803008    4.478e-10    0.018908    0.000000    0.000000    0.000000
    20        -0.227517063803988    1.569e-10    0.018908    0.000000    0.000000    0.000000
    21        -0.227517063803112    5.456e-11    0.018908    0.000000    0.000000    0.000000
    22        -0.227517063803149    1.956e-11    0.018908    0.000000    0.000000    0.000000
    23        -0.227517063803103    6.247e-12    0.018908    0.000000    0.000000    0.000000
    24        -0.227517063803133    2.243e-12    0.018908    0.000000    0.000000    0.000000
    25        -0.227517063803135    7.446e-13    0.018908    0.000000    0.000000    0.000000

    Iterations converged.


    Largest TIA Amplitudes:
              0  26         0.0095547045
              0   0        -0.0088557776
              0  12        -0.0085523970
              0  28        -0.0082654166
              0  30         0.0078869560
              0   9        -0.0077544689
              0  13        -0.0076466350
              0   3         0.0072921045
              3  58         0.0062223676
              2  30        -0.0058083146

    Largest Tia Amplitudes:
              2   2         0.0107623071
              1   4        -0.0105323441
              0   0         0.0098606828
              0   3        -0.0096283963
              1   1        -0.0093279654
              1  10        -0.0086161060
              0  30         0.0082387725
              0  13         0.0081429176
              2   0         0.0081345841
              2   7        -0.0079050451

    Largest TIJAB Amplitudes:
      3   2  63  15        -0.0084672005
      3   1  63  10        -0.0080410962
      3   2  70  30         0.0076761173
      3   1  62  12         0.0075531500
      3   1  63   4        -0.0071007662
      2   1  15  10        -0.0069818529
      3   1  63   1        -0.0069762639
      3   2  64  15        -0.0066493975
      3   2  58  15         0.0066409721
      3   2  61  13         0.0066026556

    Largest Tijab Amplitudes:
      2   0  63  58         0.0080967221
      1   0  62  58         0.0077063253
      2   0  71  58        -0.0073938659
      2   1  12   4         0.0071094609
      2   1  15  10         0.0070378389
      2   1  12  10         0.0067824573
      2   1  12  11         0.0063762769
      2   1  15   1         0.0063451295
      2   1  10   2        -0.0061143067
      1   0  69  58         0.0060661374

    Largest TIjAb Amplitudes:
      1   1  10  10        -0.0191000065
      2   2  15  15         0.0178519962
      1   1   4  10        -0.0173701585
      1   1  10   4        -0.0172845758
      3   0   0  58         0.0164817457
      1   1   4   4        -0.0161758355
      3   0  12  58         0.0161487439
      1   1   1  10        -0.0152880471
      3   0  26  58        -0.0152240427
      2   0  70  58        -0.0148576878

    SCF energy       (wfn)                    =  -75.704804818759072
    Reference energy (file100)                =  -75.704804818759072

    Opposite-spin MP2 correlation energy      =   -0.158137555797903
    Same-spin MP2 correlation energy          =   -0.045399195624748
    MP2 correlation energy                    =   -0.207140173293346
      * MP2 total energy                      =  -75.911944992052412
    CC3 correlation energy                    =   -0.227517063803135
      * CC3 total energy                      =  -75.932321882562206


*** tstop() called on node6 at Sat Nov  5 10:23:49 2022
Module time:
	user time   =     962.65 seconds =      16.04 minutes
	system time =      76.90 seconds =       1.28 minutes
	total time  =        262 seconds =       4.37 minutes
Total time:
	user time   =     989.42 seconds =      16.49 minutes
	system time =      80.58 seconds =       1.34 minutes
	total time  =        273 seconds =       4.55 minutes

*** tstart() called on node6
*** at Sat Nov  5 10:23:49 2022


			**************************
			*                        *
			*         CCHBAR         *
			*                        *
			**************************

Dots of (HeT1)c in names "CC3 Wxxx" in CC3_HET1 
Wamef terms
	<WAMEF|WAMEF> =   13.2956625609
	<Wamef|Wamef> =   10.8487957960
	<WAmEf|WAmEf> =    9.3119131180
	<WaMeF|WaMeF> =   12.6544372992
Wmnie terms
	<WMNIE (M>N,IE)|WMNIE> =    0.7439366143
	<Wmnie (m>n,ie)|Wmnie> =    0.3276667608
	<WMnIe (Mn,Ie)|WMnIe> =    0.7251079073
	<WmNiE (mN,iE)|WmNiE> =    0.6135422224
	<WMNIE(M>N,EI)|WMNIE(M>N,EI)> =    0.7439366143
	<Wmnie(m>n,ei)|Wmnie(m>n,ei)> =    0.3276667608
	<WMnIe(Mn,eI)|WMnIe(Mn,eI)> =    0.7251079073
	<WmNiE(mN,Ei)|WmNiE(mN,Ei)> =    0.6135422224
Doing Wmnij terms.
	<WMNIJ (M>N,I>J)|WMNIJ> =    9.2270123686
	<Wmnij (m>n,i>j)|Wmnij> =    4.0461874283
	<WMnIj (Mn,Ij)|WMnIj> =    6.3902981915
Doing Wmbij terms.
	<WMBIJ (MB,I>J)|WMBIJ> =    0.7492867116
	<WMBIJ (I>J,MB)|WMBIJ> =    0.7492867116
	<Wmbij (mb,i>j)|Wmbij> =    0.3334759169
	<Wmbij (i>j,mb)|Wmbij> =    0.3334759169
	<WMbIj (Mb,Ij)|WMbIj> =    0.7285521006
	<WMbIj (Ij,Mb)|WMbIj> =    0.7285521006
	<WmBiJ (mB,iJ)|WmBiJ> =    0.6169067633
	<WmBiJ (iJ,mB)|WmBiJ> =    0.6169067633
Doing Wmbej terms.
	<WMBEJ (all ME,JB)|WMBEJ> =   81.8721727264
	<Wmbej|Wmbej> =   61.9726842116
	<WMbEj|WMbEj> =    1.0297813694
	<WmBeJ|WmBeJ> =    1.0392859325
	<WMbeJ|WMbeJ> =   94.8971059751
	<WmBEj|WmBEj> =   67.9615198805
Doing Wabei terms.
	<WABEI (IE,B>A) |WABEI> =   13.3495282397
	<Wabei (ie,b>a)|Wabei> =   10.9475003626
	<WAbEi (iE,bA)|WAbEi> =    9.3868588355
	<WAbEi (iE,Ba)|WAbEi> =   12.6896571557

*** tstop() called on node6 at Sat Nov  5 10:23:51 2022
Module time:
	user time   =       6.25 seconds =       0.10 minutes
	system time =       1.40 seconds =       0.02 minutes
	total time  =          2 seconds =       0.03 minutes
Total time:
	user time   =     995.67 seconds =      16.59 minutes
	system time =      81.98 seconds =       1.37 minutes
	total time  =        275 seconds =       4.58 minutes

*** tstart() called on node6
*** at Sat Nov  5 10:23:51 2022


	**********************************************************
	*  CCEOM: An Equation of Motion Coupled Cluster Program  *
	**********************************************************

	Nuclear Rep. energy (wfn)     =    8.793210655911754
	SCF energy          (wfn)     =  -75.704804818759072
	Reference energy    (file100) =  -75.704804818759072
	CC3 energy          (file100) =   -0.227517063803135

	Input parameters:
	-----------------
	Reference wfn   = ROHF changed to UHF for Semicanonical Orbitals
	Reference EOM wfn=     UHF
	Memory (Mbytes) =  31950.0
	ABCD            =     NEW
	Cache Level     =    0
	Cache Type      =     LRU
	T3 Ws incore  =      No
	Num. of threads =     4
	Local CC        =     No


	CCEOM parameters:
	-----------------
	States sought per irrep     = Ap 0, App 1,
	Max. number of iterations   =   500
	Vectors stored per root     =    12
	Print HbarSS iterations?    =     0
	Excitation range for HBarSS =     2
	Eigenvalue tolerance        = 1.0e-06
	Eigenvalue toleranceSS      = 1.0e-06
	Residual vector tolerance   = 1.0e-08
	Residual vector toleranceSS = 1.0e-06
	Complex tolerance           = 1.0e-12
	Root for properties         =     1
	Sym of state for properties =     Ap
	Guess vectors taken from    = SINGLES
	Restart EOM CC3             = NO
	Collapse with last vector   = YES


Symmetry of ground state: App
Symmetry of excited state: App
Symmetry of right eigenvector: Ap
Obtaining initial guess from singles-singles block of Hbar...Done.

Iter=1    L=1     Root    EOM Energy     Delta E   Res. Norm    Conv?
                     1   0.5789475839   5.79e-01    5.14e-01      N
Iter=2    L=2     Root    EOM Energy     Delta E   Res. Norm    Conv?
                     1   0.4876365955  -9.13e-02    9.71e-02      N
Iter=3    L=3     Root    EOM Energy     Delta E   Res. Norm    Conv?
                     1   0.4814346810  -6.20e-03    6.38e-02      N
Iter=4    L=4     Root    EOM Energy     Delta E   Res. Norm    Conv?
                     1   0.4781842767  -3.25e-03    4.66e-02      N
Iter=5    L=5     Root    EOM Energy     Delta E   Res. Norm    Conv?
                     1   0.4769507217  -1.23e-03    2.72e-02      N
Iter=6    L=6     Root    EOM Energy     Delta E   Res. Norm    Conv?
                     1   0.4765161260  -4.35e-04    1.36e-02      N
Iter=7    L=7     Root    EOM Energy     Delta E   Res. Norm    Conv?
                     1   0.4763783476  -1.38e-04    8.77e-03      N
Iter=8    L=8     Root    EOM Energy     Delta E   Res. Norm    Conv?
                     1   0.4763025269  -7.58e-05    6.33e-03      N
Iter=9    L=9     Root    EOM Energy     Delta E   Res. Norm    Conv?
                     1   0.4762656933  -3.68e-05    3.89e-03      N
Iter=10   L=10    Root    EOM Energy     Delta E   Res. Norm    Conv?
                     1   0.4762545495  -1.11e-05    2.95e-03      N
Iter=11   L=11    Root    EOM Energy     Delta E   Res. Norm    Conv?
                     1   0.4762449159  -9.63e-06    2.38e-03      N
Iter=12   L=12    Root    EOM Energy     Delta E   Res. Norm    Conv?
                     1   0.4762414062  -3.51e-06    1.38e-03      N
Iter=13   L=2     Root    EOM Energy     Delta E   Res. Norm    Conv?
                     1   0.4762414062  -4.44e-16    1.38e-03      N
Iter=14   L=3     Root    EOM Energy     Delta E   Res. Norm    Conv?
                     1   0.4762406317  -7.74e-07    6.77e-04      N
Iter=15   L=4     Root    EOM Energy     Delta E   Res. Norm    Conv?
                     1   0.4762408928   2.61e-07    4.06e-04      N
Iter=16   L=5     Root    EOM Energy     Delta E   Res. Norm    Conv?
                     1   0.4762401623  -7.31e-07    2.36e-04      N
Iter=17   L=6     Root    EOM Energy     Delta E   Res. Norm    Conv?
                     1   0.4762397199  -4.42e-07    1.06e-04      N
Iter=18   L=7     Root    EOM Energy     Delta E   Res. Norm    Conv?
                     1   0.4762398251   1.05e-07    4.89e-05      N
Iter=19   L=8     Root    EOM Energy     Delta E   Res. Norm    Conv?
                     1   0.4762397500  -7.50e-08    3.21e-05      N
Iter=20   L=9     Root    EOM Energy     Delta E   Res. Norm    Conv?
                     1   0.4762397354  -1.46e-08    2.83e-05      N
Iter=21   L=10    Root    EOM Energy     Delta E   Res. Norm    Conv?
                     1   0.4762397309  -4.48e-09    1.87e-05      N
Iter=22   L=11    Root    EOM Energy     Delta E   Res. Norm    Conv?
                     1   0.4762397496   1.87e-08    1.09e-05      N
Iter=23   L=12    Root    EOM Energy     Delta E   Res. Norm    Conv?
                     1   0.4762397644   1.48e-08    5.35e-06      N
Iter=24   L=2     Root    EOM Energy     Delta E   Res. Norm    Conv?
                     1   0.4762397644   2.86e-14    5.35e-06      N
Iter=25   L=3     Root    EOM Energy     Delta E   Res. Norm    Conv?
                     1   0.4762397501  -1.43e-08    2.40e-06      N
Iter=26   L=4     Root    EOM Energy     Delta E   Res. Norm    Conv?
                     1   0.4762397465  -3.62e-09    1.41e-06      N
Iter=27   L=5     Root    EOM Energy     Delta E   Res. Norm    Conv?
                     1   0.4762397477   1.24e-09    9.68e-07      N
Iter=28   L=6     Root    EOM Energy     Delta E   Res. Norm    Conv?
                     1   0.4762397484   6.86e-10    4.91e-07      N
Iter=29   L=7     Root    EOM Energy     Delta E   Res. Norm    Conv?
                     1   0.4762397486   1.78e-10    2.12e-07      N
Iter=30   L=8     Root    EOM Energy     Delta E   Res. Norm    Conv?
                     1   0.4762397485  -1.35e-10    9.53e-08      N
Iter=31   L=9     Root    EOM Energy     Delta E   Res. Norm    Conv?
                     1   0.4762397484  -6.34e-11    4.91e-08      N
Iter=32   L=10    Root    EOM Energy     Delta E   Res. Norm    Conv?
                     1   0.4762397484  -3.64e-11    3.36e-08      N
Iter=33   L=11    Root    EOM Energy     Delta E   Res. Norm    Conv?
                     1   0.4762397483  -6.24e-11    2.27e-08      N
Iter=34   L=12    Root    EOM Energy     Delta E   Res. Norm    Conv?
                     1   0.4762397483   6.57e-12    1.57e-08      N
Iter=35   L=2     Root    EOM Energy     Delta E   Res. Norm    Conv?
                     1   0.4762397483   3.50e-13    1.68e-08      N
Iter=36   L=3     Root    EOM Energy     Delta E   Res. Norm    Conv?
                     1   0.4762397483  -3.43e-11    1.34e-08      N
Iter=37   L=4     Root    EOM Energy     Delta E   Res. Norm    Conv?
                     1   0.4762397483  -1.37e-11    8.58e-09      Y
Completed EOM_CCSD
Collapsing to only 1 vector(s).
Copying root 1 to CC3_MISC file.
Setting initial CC3 eigenvalue to    0.4762397483
Iter=1    L=1     Root    EOM Energy     Delta E   Res. Norm    Conv?
                     1   0.4709507063  -5.29e-03    4.35e-02      N
Iter=2    L=2     Root    EOM Energy     Delta E   Res. Norm    Conv?
                     1   0.4694028042  -1.55e-03    2.70e-02      N
Iter=3    L=3     Root    EOM Energy     Delta E   Res. Norm    Conv?
                     1   0.4679556294  -1.45e-03    4.26e-02      N
Iter=4    L=4     Root    EOM Energy     Delta E   Res. Norm    Conv?
                     1   0.4661396626  -1.82e-03    2.51e-02      N
Iter=5    L=5     Root    EOM Energy     Delta E   Res. Norm    Conv?
                     1   0.4657447577  -3.95e-04    1.30e-02      N
Iter=6    L=6     Root    EOM Energy     Delta E   Res. Norm    Conv?
                     1   0.4656136353  -1.31e-04    1.24e-02      N
Iter=7    L=7     Root    EOM Energy     Delta E   Res. Norm    Conv?
                     1   0.4654653093  -1.48e-04    9.38e-03      N
Iter=8    L=8     Root    EOM Energy     Delta E   Res. Norm    Conv?
                     1   0.4653826695  -8.26e-05    5.31e-03      N
Iter=9    L=9     Root    EOM Energy     Delta E   Res. Norm    Conv?
                     1   0.4653770414  -5.63e-06    2.37e-03      N
Iter=10   L=10    Root    EOM Energy     Delta E   Res. Norm    Conv?
                     1   0.4653760089  -1.03e-06    1.18e-03      N
Collapsing to 2 vector(s).
Change in CC3 energy from last iterated value   -0.0108637394
Iter=11   L=2     Root    EOM Energy     Delta E   Res. Norm    Conv?
                     1   0.4654036471   2.76e-05    1.18e-03      N
Iter=12   L=3     Root    EOM Energy     Delta E   Res. Norm    Conv?
                     1   0.4654014802  -2.17e-06    7.74e-04      N
Iter=13   L=4     Root    EOM Energy     Delta E   Res. Norm    Conv?
                     1   0.4654012400  -2.40e-07    4.86e-04      N
Iter=14   L=5     Root    EOM Energy     Delta E   Res. Norm    Conv?
                     1   0.4654016330   3.93e-07    2.27e-04      N
Iter=15   L=6     Root    EOM Energy     Delta E   Res. Norm    Conv?
                     1   0.4654010016  -6.31e-07    1.21e-04      N
Iter=16   L=7     Root    EOM Energy     Delta E   Res. Norm    Conv?
                     1   0.4654009865  -1.51e-08    7.51e-05      N
Iter=17   L=8     Root    EOM Energy     Delta E   Res. Norm    Conv?
                     1   0.4654012925   3.06e-07    5.47e-05      N
Iter=18   L=9     Root    EOM Energy     Delta E   Res. Norm    Conv?
                     1   0.4654013541   6.16e-08    4.64e-05      N
Iter=19   L=10    Root    EOM Energy     Delta E   Res. Norm    Conv?
                     1   0.4654013272  -2.69e-08    3.34e-05      N
Collapsing to 2 vector(s).
Change in CC3 energy from last iterated value    0.0000253183
Iter=20   L=2     Root    EOM Energy     Delta E   Res. Norm    Conv?
                     1   0.4654012317  -9.55e-08    3.30e-05      N
Iter=21   L=3     Root    EOM Energy     Delta E   Res. Norm    Conv?
                     1   0.4654012637   3.20e-08    1.83e-05      N
Iter=22   L=4     Root    EOM Energy     Delta E   Res. Norm    Conv?
                     1   0.4654012825   1.88e-08    1.01e-05      N
Iter=23   L=5     Root    EOM Energy     Delta E   Res. Norm    Conv?
                     1   0.4654012937   1.12e-08    4.87e-06      N
Iter=24   L=6     Root    EOM Energy     Delta E   Res. Norm    Conv?
                     1   0.4654012955   1.80e-09    2.28e-06      N
Iter=25   L=7     Root    EOM Energy     Delta E   Res. Norm    Conv?
                     1   0.4654012949  -6.67e-10    1.34e-06      N
Iter=26   L=8     Root    EOM Energy     Delta E   Res. Norm    Conv?
                     1   0.4654012932  -1.70e-09    8.06e-07      N
Iter=27   L=9     Root    EOM Energy     Delta E   Res. Norm    Conv?
                     1   0.4654012935   3.41e-10    5.00e-07      N
Iter=28   L=10    Root    EOM Energy     Delta E   Res. Norm    Conv?
                     1   0.4654012939   3.80e-10    3.12e-07      N
Collapsing to 2 vector(s).
Change in CC3 energy from last iterated value   -0.0000000333
Iter=29   L=2     Root    EOM Energy     Delta E   Res. Norm    Conv?
                     1   0.4654012940   1.26e-10    3.12e-07      N
Iter=30   L=3     Root    EOM Energy     Delta E   Res. Norm    Conv?
                     1   0.4654012940  -1.70e-11    1.54e-07      N
Iter=31   L=4     Root    EOM Energy     Delta E   Res. Norm    Conv?
                     1   0.4654012940   3.61e-11    7.79e-08      N
Iter=32   L=5     Root    EOM Energy     Delta E   Res. Norm    Conv?
                     1   0.4654012941   2.73e-11    4.67e-08      N
Iter=33   L=6     Root    EOM Energy     Delta E   Res. Norm    Conv?
                     1   0.4654012941   3.57e-12    4.11e-08      N
Iter=34   L=7     Root    EOM Energy     Delta E   Res. Norm    Conv?
                     1   0.4654012941   1.04e-11    3.31e-08      N
Iter=35   L=8     Root    EOM Energy     Delta E   Res. Norm    Conv?
                     1   0.4654012941  -1.01e-11    1.81e-08      N
Iter=36   L=9     Root    EOM Energy     Delta E   Res. Norm    Conv?
                     1   0.4654012941  -2.38e-12    9.32e-09      Y
Collapsing to only 1 vector(s).
Change in CC3 energy from last iterated value    0.0000000002

Procedure converged for 1 root(s).
Energy written to CC_INFO:Etot  -75.4669205885
States per irrep written to CC_INFO.
<R|R> =   0.9999999999999999
EOM CC3 R0 for root 0 =  -0.00401364408

Final Energetic Summary for Converged Roots of Irrep App
                     Excitation Energy              Total Energy
                (eV)     (cm^-1)     (au)             (au)
EOM State 1     12.664   102143.8   0.4654012941   -75.466920588493

Largest components of excited wave function #1:
 RIA (libdpd indices) : (cscf notation)
         2 >   0      :       4ap >    5ap :   -0.4929913682
         2 >   3      :       4ap >    8ap :    0.1730147753
         2 >   9      :       4ap >   14ap :   -0.1363966330
         2 >   2      :       4ap >    7ap :   -0.1274307911
         2 >   7      :       4ap >   12ap :    0.0512933861
 Ria (libdpd indices) : (cscf notation)
         2 >   0      :       4ap >    5ap :    0.5827375223
         2 >   3      :       4ap >    8ap :   -0.2322014286
         2 >   9      :       4ap >   14ap :   -0.1709362019
         2 >   2      :       4ap >    7ap :    0.1397576259
         2 >   7      :       4ap >   12ap :   -0.0586270338
 RIjAb (libdpd indices)     : (cscf notation)
        0   2 >   0   0     :   1app    4ap >    5ap   1app :   -0.3347462893
        0   2 >   3   0     :   1app    4ap >    8ap   1app :    0.1176630263
        0   2 >   0   1     :   1app    4ap >    5ap   2app :    0.0956947954
        0   2 >   9   0     :   1app    4ap >   14ap   1app :   -0.0931371684
        0   2 >   2   0     :   1app    4ap >    7ap   1app :   -0.0843306827
 RIJAB (libdpd indices)     : (cscf notation)
        0   2 >   5   0     :   1app    4ap >   7app    5ap :   -0.0200182876
        0   2 >   0   0     :   1app    4ap >   2app    5ap :    0.0193698815
        2   1 >  10   0     :    4ap    3ap >   15ap    5ap :    0.0189507489
        2   1 >   4   0     :    4ap    3ap >    9ap    5ap :    0.0182673409
        2   1 >   1   0     :    4ap    3ap >    6ap    5ap :    0.0169751011
 Rijab (libdpd indices)     : (cscf notation)
        2   1 >  10   0     :    4ap    3ap >   15ap    5ap :   -0.0238552059
        2   1 >   4   0     :    4ap    3ap >    9ap    5ap :   -0.0232710137
        2   1 >   1   0     :    4ap    3ap >    6ap    5ap :   -0.0204746003
        2   1 >  20   0     :    4ap    3ap >   25ap    5ap :   -0.0133868331
        2   0 >   9   0     :    4ap    2ap >   14ap    5ap :   -0.0095627346

	Putting into environment energy for root of R irrep 1 and root 1.
	Putting into environment CURRENT ENERGY:              -75.4669205885

	Total # of sigma evaluations: 73

*** tstop() called on node6 at Sat Nov  5 10:40:41 2022
Module time:
	user time   =    3777.62 seconds =      62.96 minutes
	system time =     258.90 seconds =       4.31 minutes
	total time  =       1010 seconds =      16.83 minutes
Total time:
	user time   =    4773.29 seconds =      79.55 minutes
	system time =     340.88 seconds =       5.68 minutes
	total time  =       1285 seconds =      21.42 minutes

    Psi4 stopped on: Saturday, 05 November 2022 10:40AM
    Psi4 wall time for execution: 0:21:24.74

*** Psi4 exiting successfully. Buy a developer a beer!
