
    -----------------------------------------------------------------------
          Psi4: An Open-Source Ab Initio Electronic Structure Package
                               Psi4 1.2 release

                         Git: Rev {HEAD} 9d4a61c 


    R. M. Parrish, L. A. Burns, D. G. A. Smith, A. C. Simmonett,
    A. E. DePrince III, E. G. Hohenstein, U. Bozkaya, A. Yu. Sokolov,
    R. Di Remigio, R. M. Richard, J. F. Gonthier, A. M. James,
    H. R. McAlexander, A. Kumar, M. Saitow, X. Wang, B. P. Pritchard,
    P. Verma, H. F. Schaefer III, K. Patkowski, R. A. King, E. F. Valeev,
    F. A. Evangelista, J. M. Turney, T. D. Crawford, and C. D. Sherrill,
    J. Chem. Theory Comput. 13(7) pp 3185--3197 (2017).
    (doi: 10.1021/acs.jctc.7b00174)


                         Additional Contributions by
    P. Kraus, H. Kruse, M. H. Lechner, M. C. Schieber, and R. A. Shaw

    -----------------------------------------------------------------------


    Psi4 started on: Saturday, 05 November 2022 10:19AM

    Process ID: 48723
    Host:       node15
    PSIDATADIR: /home/qc/psi4conda/share/psi4
    Memory:     500.0 MiB
    Threads:    4
    
  ==> Input File <==

--------------------------------------------------------------------------
#h2o SPECIAL eom-cc3
memory 31950 mb

molecule h2o{
1 2
H        0.0000000000       -1.5425586000       -0.9692005400
O        0.0000000000       -0.0000000000        0.1221368900
H        0.0000000000        1.5425586000       -0.9692005400

units bohr
}
 
set globals {
 reference rohf
 basis aug-cc-pvtz-dk
 freeze_core true
 cachelevel=0
 relativistic x2c
 maxiter=500
 dertype none
 ints_tolerance 20
 roots_per_irrep = [0,0,1,0]
}

set scf d_convergence 12
set ccenergy r_convergence 12
set cceom r_convergence 8

energy('eom-cc3')--------------------------------------------------------------------------

  Memory set to  29.756 GiB by Python driver.

*** tstart() called on node15
*** at Sat Nov  5 10:19:25 2022

   => Loading Basis Set <=

    Name: AUG-CC-PVTZ-DK
    Role: ORBITAL
    Keyword: BASIS
    atoms 1, 3 entry H          line    45 file /home/qc/psi4conda/share/psi4/basis/aug-cc-pvtz-dk.gbs 
    atoms 2    entry O          line   324 file /home/qc/psi4conda/share/psi4/basis/aug-cc-pvtz-dk.gbs 


         ---------------------------------------------------------
                                   SCF
            by Justin Turney, Rob Parrish, Andy Simmonett
                             and Daniel Smith
                             ROHF Reference
                        4 Threads,  30469 MiB Core
         ---------------------------------------------------------

  ==> Geometry <==

    Molecular point group: c2v
    Full point group: C2v

    Geometry (in Bohr), charge = 1, multiplicity = 2:

       Center              X                  Y                   Z               Mass       
    ------------   -----------------  -----------------  -----------------  -----------------
         H            0.000000000000    -1.542558600000    -0.969200539824     1.007825032070
         O            0.000000000000     0.000000000000     0.122136890176    15.994914619560
         H           -0.000000000000     1.542558600000    -0.969200539824     1.007825032070

  Running in c2v symmetry.

  Rotational constants: A =     28.23621  B =     12.55150  C =      8.68906 [cm^-1]
  Rotational constants: A = 846500.26661  B = 376284.60861  C = 260491.46335 [MHz]
  Nuclear repulsion =    8.791636595460162

  Charge       = 1
  Multiplicity = 2
  Electrons    = 9
  Nalpha       = 5
  Nbeta        = 4

  ==> Algorithm <==

  SCF Algorithm Type is PK.
  DIIS enabled.
  MOM disabled.
  Fractional occupation disabled.
  Guess Type is GWH.
  Energy threshold   = 1.00e-08
  Density threshold  = 1.00e-12
  Integral threshold = 1.00e-20

  ==> Primary Basis <==

  Basis Set: AUG-CC-PVTZ-DK
    Blend: AUG-CC-PVTZ-DK
    Number of shells: 32
    Number of basis function: 92
    Number of Cartesian functions: 105
    Spherical Harmonics?: true
    Max angular momentum: 3

   => Loading Basis Set <=

    Name: (AUG-CC-PVTZ-DK AUX)
    Role: DECON
    Keyword: BASIS_RELATIVISTIC
    atoms 1, 3 entry H          line    45 file /home/qc/psi4conda/share/psi4/basis/aug-cc-pvtz-dk.gbs func decontract
    atoms 2    entry O          line   324 file /home/qc/psi4conda/share/psi4/basis/aug-cc-pvtz-dk.gbs func decontract

  ==> Pre-Iterations <==

   -------------------------------------------------------
    Irrep   Nso     Nmo     Nalpha   Nbeta   Ndocc  Nsocc
   -------------------------------------------------------
     A1        35      35       0       0       0       0
     A2        12      12       0       0       0       0
     B1        18      18       0       0       0       0
     B2        27      27       0       0       0       0
   -------------------------------------------------------
    Total      92      92       5       4       4       1
   -------------------------------------------------------

 OEINTS: Using relativistic (X2C) overlap, kinetic, and potential integrals.
         ------------------------------------------------------------
         Spin-Free X2C Integrals at the One-Electron Level (SFX2C-1e)
                 by Prakash Verma and Francesco A. Evangelista
         ------------------------------------------------------------

  ==> X2C Options <==

    Computational Basis: AUG-CC-PVTZ-DK
    X2C Basis: (AUG-CC-PVTZ-DK AUX)
    The X2C Hamiltonian will be computed in the X2C Basis

    Comparing only 35 out of 45 elements of H_Dirac

    Comparing only 18 out of 20 elements of H_Dirac

    Comparing only 27 out of 31 elements of H_Dirac

    The 1-norm of |H_X2C - H_Dirac| is: 6.758473385215

    WARNING: The X2C and Dirac Hamiltonians have substatially different eigenvalues!
             This is probably caused by the recontraction of the basis set.

  ==> Integral Setup <==

  Using in-core PK algorithm.
   Calculation information:
      Number of atoms:                   3
      Number of AO shells:              32
      Number of primitives:             52
      Number of atomic orbitals:       105
      Number of basis functions:        92

      Integral cutoff                 1.00e-20
      Number of threads:                 4

  Performing in-core PK
  Using 18305562 doubles for integral storage.
  We computed 171364 shell quartets total.
  Whereas there are 139656 unique shell quartets.
    22.70 percent of shell quartets recomputed by reordering.

  ==> DiskJK: Disk-Based J/K Matrices <==

    J tasked:                  Yes
    K tasked:                  Yes
    wK tasked:                  No
    Memory (MB):             22852
    Schwarz Cutoff:          1E-20

    OpenMP threads:              4

  Minimum eigenvalue in the overlap matrix is 4.0983932908E-04.
  Using Symmetric Orthogonalization.

  SCF Guess: Generalized Wolfsberg-Helmholtz.

  ==> Iterations <==

                        Total Energy        Delta E     RMS |[F,P]|

   @ROHF iter   1:   -69.33603125268515   -6.93360e+01   1.03883e-01 
   @ROHF iter   2:   -75.57253501168496   -6.23650e+00   1.14712e-02 DIIS
   @ROHF iter   3:   -75.69037064719318   -1.17836e-01   3.87414e-03 DIIS
   @ROHF iter   4:   -75.70254347143862   -1.21728e-02   1.30492e-03 DIIS
   @ROHF iter   5:   -75.70473001055761   -2.18654e-03   3.82706e-04 DIIS
   @ROHF iter   6:   -75.70491969175980   -1.89681e-04   6.97167e-05 DIIS
   @ROHF iter   7:   -75.70492904909091   -9.35733e-06   1.23209e-05 DIIS
   @ROHF iter   8:   -75.70492929561529   -2.46524e-07   1.61231e-06 DIIS
   @ROHF iter   9:   -75.70492930009515   -4.47986e-09   2.82332e-07 DIIS
   @ROHF iter  10:   -75.70492930021182   -1.16671e-10   7.50346e-08 DIIS
   @ROHF iter  11:   -75.70492930021793   -6.11067e-12   9.94960e-09 DIIS
   @ROHF iter  12:   -75.70492930021800   -7.10543e-14   1.17305e-09 DIIS
   @ROHF iter  13:   -75.70492930021793    7.10543e-14   2.05060e-10 DIIS
   @ROHF iter  14:   -75.70492930021796   -2.84217e-14   2.56766e-11 DIIS
   @ROHF iter  15:   -75.70492930021807   -1.13687e-13   6.29243e-12 DIIS
   @ROHF iter  16:   -75.70492930021801    5.68434e-14   9.40841e-13 DIIS

  ==> Post-Iterations <==

    Orbital Energies [Eh]
    ---------------------

    Doubly Occupied:                                                      

       1A1   -21.118164     2A1    -1.800945     1B2    -1.175390  
       3A1    -1.047958  

    Singly Occupied:                                                      

       1B1    -0.686159  

    Virtual:                                                              

       4A1    -0.181222     2B2    -0.116683     5A1    -0.060879  
       2B1    -0.057654     6A1    -0.042121     3B2    -0.027338  
       4B2     0.010451     7A1     0.017914     1A2     0.036514  
       3B1     0.069818     8A1     0.072479     5B2     0.162797  
       9A1     0.177994     6B2     0.194748     7B2     0.323149  
      10A1     0.347526    11A1     0.408957     4B1     0.422852  
       2A2     0.422962    12A1     0.515934     5B1     0.554165  
      13A1     0.583321     8B2     0.596897     6B1     0.607532  
       3A2     0.623377     9B2     0.661254    14A1     0.667552  
      15A1     0.727957    10B2     0.742524     7B1     0.748237  
      11B2     0.828374    16A1     0.860883     4A2     0.871374  
      12B2     0.964645     5A2     1.164456     8B1     1.223988  
      17A1     1.245139    13B2     1.409434    18A1     1.442254  
      14B2     1.581311    19A1     1.682451     9B1     1.832166  
       6A2     1.898526    20A1     1.944359    21A1     1.979900  
      10B1     2.003222    15B2     2.051587    22A1     2.094969  
      11B1     2.306437    23A1     2.313274    16B2     2.322475  
       7A2     2.451427    17B2     2.488794    18B2     3.161796  
      24A1     3.306212     8A2     3.574479    12B1     3.584353  
      19B2     3.771871    25A1     3.775879    13B1     3.898707  
      14B1     3.965647     9A2     3.969150    20B2     4.045956  
      26A1     4.076753    27A1     4.202397    21B2     4.273194  
      22B2     4.606763    10A2     4.634164    28A1     4.733725  
      23B2     4.835027    15B1     4.917534    29A1     5.222735  
      30A1     5.601553    24B2     6.065843    16B1     6.202901  
      31A1     6.291479    17B1     6.600620    18B1     6.706844  
      11A2     6.710145    32A1     6.772543    25B2     6.839937  
      12A2     6.851747    33A1     6.968678    26B2     7.304617  
      34A1     7.406790    27B2     8.079386    35A1    14.114473  

    Final Occupation by Irrep:
             A1    A2    B1    B2 
    DOCC [     3,    0,    0,    1 ]
    SOCC [     0,    0,    1,    0 ]

  Energy converged.

  @ROHF Final Energy:   -75.70492930021801

   => Energetics <=

    Nuclear Repulsion Energy =              8.7916365954601616
    One-Electron Energy =                -117.6002201315968136
    Two-Electron Energy =                  33.1036542359186399
    Total Energy =                        -75.7049293002180121



Properties will be evaluated at   0.000000,   0.000000,   0.000000 [a0]

Properties computed using the SCF density matrix

  Nuclear Dipole Moment: [e a0]
     X:     0.0000      Y:     0.0000      Z:    -0.9613

  Electronic Dipole Moment: [e a0]
     X:     0.0000      Y:     0.0000      Z:    -0.0044

  Dipole Moment: [e a0]
     X:     0.0000      Y:     0.0000      Z:    -0.9657     Total:     0.9657

  Dipole Moment: [D]
     X:     0.0000      Y:     0.0000      Z:    -2.4546     Total:     2.4546


*** tstop() called on node15 at Sat Nov  5 10:19:26 2022
Module time:
	user time   =       4.55 seconds =       0.08 minutes
	system time =       0.09 seconds =       0.00 minutes
	total time  =          1 seconds =       0.02 minutes
Total time:
	user time   =       4.55 seconds =       0.08 minutes
	system time =       0.09 seconds =       0.00 minutes
	total time  =          1 seconds =       0.02 minutes
   => Loading Basis Set <=

    Name: (AUG-CC-PVTZ-DK AUX)
    Role: DECON
    Keyword: BASIS_RELATIVISTIC
    atoms 1, 3 entry H          line    45 file /home/qc/psi4conda/share/psi4/basis/aug-cc-pvtz-dk.gbs func decontract
    atoms 2    entry O          line   324 file /home/qc/psi4conda/share/psi4/basis/aug-cc-pvtz-dk.gbs func decontract

 MINTS: Wrapper to libmints.
   by Justin Turney

   Calculation information:
      Number of threads:                 4
      Number of atoms:                   3
      Number of AO shells:              32
      Number of SO shells:              23
      Number of primitives:             52
      Number of atomic orbitals:       105
      Number of basis functions:        92

      Number of irreps:                  4
      Integral cutoff                 1.00e-20
      Number of functions per irrep: [  35   12   18   27 ]

 OEINTS: Using relativistic (X2C) overlap, kinetic, and potential integrals.
         ------------------------------------------------------------
         Spin-Free X2C Integrals at the One-Electron Level (SFX2C-1e)
                 by Prakash Verma and Francesco A. Evangelista
         ------------------------------------------------------------

  ==> X2C Options <==

    Computational Basis: AUG-CC-PVTZ-DK
    X2C Basis: (AUG-CC-PVTZ-DK AUX)
    The X2C Hamiltonian will be computed in the X2C Basis

    Comparing only 35 out of 45 elements of H_Dirac

    Comparing only 18 out of 20 elements of H_Dirac

    Comparing only 27 out of 31 elements of H_Dirac

    The 1-norm of |H_X2C - H_Dirac| is: 6.758473385215

    WARNING: The X2C and Dirac Hamiltonians have substatially different eigenvalues!
             This is probably caused by the recontraction of the basis set.

 OEINTS: Overlap, kinetic, potential, dipole, and quadrupole integrals
         stored in file 35.

      Computing two-electron integrals...done
      Computed 2242735 non-zero two-electron integrals.
        Stored in file 33.


*** tstart() called on node15
*** at Sat Nov  5 10:19:27 2022


	Wfn Parameters:
	--------------------
	Wavefunction         = CC3
	Number of irreps     = 4
	Number of MOs        = 92
	Number of active MOs = 91
	AO-Basis             = NONE
	Semicanonical        = true
	Reference            = ROHF changed to UHF for semicanonical orbitals
	Print Level          = 1

	IRREP	# MOs	# FZDC	# DOCC	# SOCC	# VIRT	# FZVR
	-----	-----	------	------	------	------	------
	 A1	   35	    1	    2	    0	    32	    0
	 A2	   12	    0	    0	    0	    12	    0
	 B1	   18	    0	    0	    1	    17	    0
	 B2	   27	    0	    1	    0	    26	    0
	Transforming integrals...
	IWL integrals will be deleted.
	(OO|OO)...
	Presorting SO-basis two-electron integrals.
	Sorting File: SO Ints (nn|nn) nbuckets = 1
	Transforming the one-electron integrals and constructing Fock matrices
	Starting AA/AB first half-transformation.
	Sorting AA/AB half-transformed integrals.
	Starting BB first half-transformation.
	Sorting BB half-transformed integrals.
	First half integral transformation complete.
	Starting AA second half-transformation.
	Starting AB second half-transformation.
	Starting BB second half-transformation.
	Two-electron integral transformation complete.
	(OO|OV)...
	Starting AA second half-transformation.
	Starting AB second half-transformation.
	Starting BB second half-transformation.
	Two-electron integral transformation complete.
	(OO|VV)...
	Starting AA second half-transformation.
	Starting AB second half-transformation.
	Starting BB second half-transformation.
	Two-electron integral transformation complete.
	(OV|OO)...
	Starting AA/AB first half-transformation.
	Sorting AA/AB half-transformed integrals.
	Starting BB first half-transformation.
	Sorting BB half-transformed integrals.
	First half integral transformation complete.
	Starting AA second half-transformation.
	Starting AB second half-transformation.
	Starting BB second half-transformation.
	Two-electron integral transformation complete.
	(OV|OV)...
	Starting AA second half-transformation.
	Starting AB second half-transformation.
	Starting BB second half-transformation.
	Two-electron integral transformation complete.
	(OV|VV)...
	Starting AA second half-transformation.
	Starting AB second half-transformation.
	Starting BB second half-transformation.
	Two-electron integral transformation complete.
	(VV|OO)...
	Starting AA/AB first half-transformation.
	Sorting AA/AB half-transformed integrals.
	Starting BB first half-transformation.
	Sorting BB half-transformed integrals.
	First half integral transformation complete.
	Starting AA second half-transformation.
	Starting AB second half-transformation.
	Starting BB second half-transformation.
	Two-electron integral transformation complete.
	(VV|OV)...
	Starting AA second half-transformation.
	Starting AB second half-transformation.
	Starting BB second half-transformation.
	Two-electron integral transformation complete.
	(VV|VV)...
	Starting AA second half-transformation.
	Starting AB second half-transformation.
	Starting BB second half-transformation.
	Two-electron integral transformation complete.
	Frozen core energy     =    -61.26794572489462

	Size of irrep 0 of <AB|CD> integrals:      1.047 (MW) /      8.372 (MB)
	Size of irrep 1 of <AB|CD> integrals:      0.682 (MW) /      5.458 (MB)
	Size of irrep 2 of <AB|CD> integrals:      0.733 (MW) /      5.862 (MB)
	Size of irrep 3 of <AB|CD> integrals:      1.073 (MW) /      8.586 (MB)
	Total:                                     3.535 (MW) /     28.279 (MB)

	Size of irrep 0 of <ab|cd> integrals:      1.082 (MW) /      8.653 (MB)
	Size of irrep 1 of <ab|cd> integrals:      0.726 (MW) /      5.807 (MB)
	Size of irrep 2 of <ab|cd> integrals:      0.789 (MW) /      6.308 (MB)
	Size of irrep 3 of <ab|cd> integrals:      1.098 (MW) /      8.786 (MB)
	Total:                                     3.694 (MW) /     29.555 (MB)

	Size of irrep 0 of <Ab|Cd> integrals:      4.622 (MW) /     36.980 (MB)
	Size of irrep 1 of <Ab|Cd> integrals:      2.816 (MW) /     22.525 (MB)
	Size of irrep 2 of <Ab|Cd> integrals:      3.042 (MW) /     24.332 (MB)
	Size of irrep 3 of <Ab|Cd> integrals:      4.343 (MW) /     34.744 (MB)
	Total:                                    14.823 (MW) /    118.582 (MB)

	Size of irrep 0 of <IA|BC> integrals:      0.228 (MW) /      1.826 (MB)
	Size of irrep 1 of <IA|BC> integrals:      0.111 (MW) /      0.885 (MB)
	Size of irrep 2 of <IA|BC> integrals:      0.134 (MW) /      1.068 (MB)
	Size of irrep 3 of <IA|BC> integrals:      0.199 (MW) /      1.591 (MB)
	Total:                                     0.671 (MW) /      5.371 (MB)

	Size of irrep 0 of <ia|bc> integrals:      0.195 (MW) /      1.561 (MB)
	Size of irrep 1 of <ia|bc> integrals:      0.072 (MW) /      0.573 (MB)
	Size of irrep 2 of <ia|bc> integrals:      0.085 (MW) /      0.682 (MB)
	Size of irrep 3 of <ia|bc> integrals:      0.176 (MW) /      1.409 (MB)
	Total:                                     0.528 (MW) /      4.224 (MB)

	Size of irrep 0 of <Ia|Bc> integrals:      0.232 (MW) /      1.858 (MB)
	Size of irrep 1 of <Ia|Bc> integrals:      0.114 (MW) /      0.913 (MB)
	Size of irrep 2 of <Ia|Bc> integrals:      0.140 (MW) /      1.116 (MB)
	Size of irrep 3 of <Ia|Bc> integrals:      0.200 (MW) /      1.601 (MB)
	Total:                                     0.686 (MW) /      5.487 (MB)

	Size of irrep 0 of <iA|bC> integrals:      0.194 (MW) /      1.548 (MB)
	Size of irrep 1 of <iA|bC> integrals:      0.069 (MW) /      0.550 (MB)
	Size of irrep 2 of <iA|bC> integrals:      0.080 (MW) /      0.642 (MB)
	Size of irrep 3 of <iA|bC> integrals:      0.175 (MW) /      1.400 (MB)
	Total:                                     0.518 (MW) /      4.141 (MB)

	Size of irrep 0 of tIjAb amplitudes:       0.011 (MW) /      0.086 (MB)
	Size of irrep 1 of tIjAb amplitudes:       0.002 (MW) /      0.013 (MB)
	Size of irrep 2 of tIjAb amplitudes:       0.003 (MW) /      0.028 (MB)
	Size of irrep 3 of tIjAb amplitudes:       0.008 (MW) /      0.067 (MB)
	Total:                                     0.024 (MW) /      0.194 (MB)

	Nuclear Rep. energy          =      8.79163659546016
	SCF energy                   =    -75.70492930021801
	One-electron energy          =    -37.30069128372745
	Two-electron (AA) energy     =      3.70072296088862
	Two-electron (BB) energy     =      1.75294959830260
	Two-electron (AB) energy     =      8.61839855375275
	Two-electron energy          =     14.07207111294398
	Reference energy             =    -75.70492930021791

*** tstop() called on node15 at Sat Nov  5 10:19:30 2022
Module time:
	user time   =       2.22 seconds =       0.04 minutes
	system time =       0.92 seconds =       0.02 minutes
	total time  =          3 seconds =       0.05 minutes
Total time:
	user time   =       8.30 seconds =       0.14 minutes
	system time =       1.06 seconds =       0.02 minutes
	total time  =          5 seconds =       0.08 minutes

*** tstart() called on node15
*** at Sat Nov  5 10:19:30 2022

            **************************
            *                        *
            *        CCENERGY        *
            *                        *
            **************************

    Nuclear Rep. energy (wfn)     =    8.791636595460162
    SCF energy          (wfn)     =  -75.704929300218012
    Reference energy    (file100) =  -75.704929300217913

    Input parameters:
    -----------------
    Wave function   =     CC3
    Reference wfn   =     ROHF changed to UHF for Semicanonical Orbitals
    Brueckner       =     No
    Memory (Mbytes) =     31950.0
    Maxiter         =    500
    R_Convergence   =     1.0e-12
    E_Convergence   =     1.0e-06
    Restart         =     Yes
    DIIS            =     Yes
    AO Basis        =     NONE
    ABCD            =     NEW
    Cache Level     =     0
    Cache Type      =     LRU
    Print Level     =     1
    Num. of threads =     4
    # Amps to Print =     10
    Print MP2 Amps? =     No
    Analyze T2 Amps =     No
    Print Pair Ener =     No
    Local CC        =     No
    T3 Ws incore    =     No
    SCS-MP2         =     False
    SCSN-MP2        =     False
    SCS-CCSD        =     False

MP2 correlation energy -0.2070921027564452
                Solving CC Amplitude Equations
                ------------------------------
  Iter             Energy              RMS        T1Diag      D1Diag    New D1Diag    D2Diag
  ----     ---------------------    ---------   ----------  ----------  ----------   --------
     0        -0.207150392144535    0.000e+00    0.013493    0.000000    0.000000    0.000000
     1        -0.222115224671284    3.329e-02    0.016628    0.000000    0.000000    0.000000
     2        -0.227116123589684    1.211e-02    0.018349    0.000000    0.000000    0.000000
     3        -0.227412269107621    4.096e-03    0.018911    0.000000    0.000000    0.000000
     4        -0.227423252088112    1.776e-03    0.018977    0.000000    0.000000    0.000000
     5        -0.227459228849501    7.365e-04    0.018948    0.000000    0.000000    0.000000
     6        -0.227462729777623    2.431e-04    0.018915    0.000000    0.000000    0.000000
     7        -0.227464958790714    9.296e-05    0.018904    0.000000    0.000000    0.000000
     8        -0.227464795033963    3.249e-05    0.018902    0.000000    0.000000    0.000000
     9        -0.227464759226924    1.088e-05    0.018902    0.000000    0.000000    0.000000
    10        -0.227464877929643    4.012e-06    0.018903    0.000000    0.000000    0.000000
    11        -0.227464814572192    1.356e-06    0.018903    0.000000    0.000000    0.000000
    12        -0.227464797189471    4.071e-07    0.018903    0.000000    0.000000    0.000000
    13        -0.227464786814215    1.121e-07    0.018903    0.000000    0.000000    0.000000
    14        -0.227464786438075    3.367e-08    0.018903    0.000000    0.000000    0.000000
    15        -0.227464786387856    1.284e-08    0.018903    0.000000    0.000000    0.000000
    16        -0.227464786309914    5.796e-09    0.018903    0.000000    0.000000    0.000000
    17        -0.227464786207633    2.607e-09    0.018903    0.000000    0.000000    0.000000
    18        -0.227464786143515    1.080e-09    0.018903    0.000000    0.000000    0.000000
    19        -0.227464786133595    4.351e-10    0.018903    0.000000    0.000000    0.000000
    20        -0.227464786134609    1.526e-10    0.018903    0.000000    0.000000    0.000000
    21        -0.227464786133823    5.268e-11    0.018903    0.000000    0.000000    0.000000
    22        -0.227464786133906    1.849e-11    0.018903    0.000000    0.000000    0.000000
    23        -0.227464786133882    5.552e-12    0.018903    0.000000    0.000000    0.000000
    24        -0.227464786133921    1.832e-12    0.018903    0.000000    0.000000    0.000000
    25        -0.227464786133928    5.283e-13    0.018903    0.000000    0.000000    0.000000

    Iterations converged.


    Largest TIA Amplitudes:
              0  14         0.0096705980
              0   0         0.0088567538
              0   6         0.0085021440
              0  15         0.0083598090
              0  17        -0.0078855006
              0   5        -0.0078119517
              0   7         0.0076401915
              0   2        -0.0073315365
              2  44         0.0062074717
              1  17         0.0058708022

    Largest Tia Amplitudes:
              1   1         0.0107743009
              2  63         0.0105443311
              0   0        -0.0099160995
              0   2         0.0097100982
              2  62         0.0092797040
              2  66         0.0086727670
              0  17         0.0082344685
              0   7         0.0081118263
              1   0        -0.0081085259
              1   4         0.0079346468

    Largest TIJAB Amplitudes:
      2   1  47   9         0.0084219287
      3   2  65  47         0.0080396808
      3   2  33   6         0.0079706344
      2   1  51  17         0.0077587379
      3   2  62  47         0.0070896723
      3   1  65   9        -0.0070603486
      2   1  46   7         0.0069663808
      3   2  61  47         0.0069162186
      2   1  48   9        -0.0067482969
      2   1  44   9        -0.0066514073

    Largest Tijab Amplitudes:
      1   0  47  44         0.0081400402
      2   0  44  33         0.0077519249
      1   0  52  44        -0.0074318123
      2   1  66   9        -0.0071377017
      2   1  63   6        -0.0071086029
      2   1  66   6        -0.0068164256
      2   1  67   6         0.0063927781
      2   1  62   9        -0.0063529098
      2   1  66   1        -0.0061588212
      2   0  44  36         0.0060758409

    Largest TIjAb Amplitudes:
      3   2  65  66        -0.0192252215
      1   1   9   9        -0.0179021931
      3   2  62  66        -0.0174555238
      3   2  65  63        -0.0173451572
      2   0   0  44         0.0165360825
      3   2  62  63        -0.0161950880
      2   0   6  44         0.0160803205
      2   0  14  44         0.0154167445
      3   2  61  66        -0.0153627862
      1   0  51  44        -0.0149359704

    SCF energy       (wfn)                    =  -75.704929300218012
    Reference energy (file100)                =  -75.704929300217913

    Opposite-spin MP2 correlation energy      =   -0.158098287679229
    Same-spin MP2 correlation energy          =   -0.045389801388253
    MP2 correlation energy                    =   -0.207092102756445
      * MP2 total energy                      =  -75.912021402974361
    CC3 correlation energy                    =   -0.227464786133928
      * CC3 total energy                      =  -75.932394086351835


*** tstop() called on node15 at Sat Nov  5 10:21:16 2022
Module time:
	user time   =     395.04 seconds =       6.58 minutes
	system time =      27.76 seconds =       0.46 minutes
	total time  =        106 seconds =       1.77 minutes
Total time:
	user time   =     403.34 seconds =       6.72 minutes
	system time =      28.82 seconds =       0.48 minutes
	total time  =        111 seconds =       1.85 minutes

*** tstart() called on node15
*** at Sat Nov  5 10:21:16 2022


			**************************
			*                        *
			*         CCHBAR         *
			*                        *
			**************************

Dots of (HeT1)c in names "CC3 Wxxx" in CC3_HET1 
Wamef terms
	<WAMEF|WAMEF> =   13.2951061936
	<Wamef|Wamef> =   10.8480624072
	<WAmEf|WAmEf> =    9.3107891789
	<WaMeF|WaMeF> =   12.6534657703
Wmnie terms
	<WMNIE (M>N,IE)|WMNIE> =    0.7440441751
	<Wmnie (m>n,ie)|Wmnie> =    0.3277623038
	<WMnIe (Mn,Ie)|WMnIe> =    0.7251452806
	<WmNiE (mN,iE)|WmNiE> =    0.6136553803
	<WMNIE(M>N,EI)|WMNIE(M>N,EI)> =    0.7440441751
	<Wmnie(m>n,ei)|Wmnie(m>n,ei)> =    0.3277623038
	<WMnIe(Mn,eI)|WMnIe(Mn,eI)> =    0.7251452806
	<WmNiE(mN,Ei)|WmNiE(mN,Ei)> =    0.6136553803
Doing Wmnij terms.
	<WMNIJ (M>N,I>J)|WMNIJ> =    9.2274052178
	<Wmnij (m>n,i>j)|Wmnij> =    4.0464075350
	<WMnIj (Mn,Ij)|WMnIj> =    6.3906509375
Doing Wmbij terms.
	<WMBIJ (MB,I>J)|WMBIJ> =    0.7493951073
	<WMBIJ (I>J,MB)|WMBIJ> =    0.7493951073
	<Wmbij (mb,i>j)|Wmbij> =    0.3335788417
	<Wmbij (i>j,mb)|Wmbij> =    0.3335788417
	<WMbIj (Mb,Ij)|WMbIj> =    0.7285969335
	<WMbIj (Ij,Mb)|WMbIj> =    0.7285969335
	<WmBiJ (mB,iJ)|WmBiJ> =    0.6170174810
	<WmBiJ (iJ,mB)|WmBiJ> =    0.6170174810
Doing Wmbej terms.
	<WMBEJ (all ME,JB)|WMBEJ> =   81.8661230937
	<Wmbej|Wmbej> =   61.9689577849
	<WMbEj|WMbEj> =    1.0297260037
	<WmBeJ|WmBeJ> =    1.0392308255
	<WMbeJ|WMbeJ> =   94.8902435840
	<WmBEj|WmBEj> =   67.9573936876
Doing Wabei terms.
	<WABEI (IE,B>A) |WABEI> =   13.3488440549
	<Wabei (ie,b>a)|Wabei> =   10.9467738436
	<WAbEi (iE,bA)|WAbEi> =    9.3856992251
	<WAbEi (iE,Ba)|WAbEi> =   12.6885490927

*** tstop() called on node15 at Sat Nov  5 10:21:17 2022
Module time:
	user time   =       2.94 seconds =       0.05 minutes
	system time =       0.55 seconds =       0.01 minutes
	total time  =          1 seconds =       0.02 minutes
Total time:
	user time   =     406.28 seconds =       6.77 minutes
	system time =      29.37 seconds =       0.49 minutes
	total time  =        112 seconds =       1.87 minutes

*** tstart() called on node15
*** at Sat Nov  5 10:21:17 2022


	**********************************************************
	*  CCEOM: An Equation of Motion Coupled Cluster Program  *
	**********************************************************

	Nuclear Rep. energy (wfn)     =    8.791636595460162
	SCF energy          (wfn)     =  -75.704929300218012
	Reference energy    (file100) =  -75.704929300217913
	CC3 energy          (file100) =   -0.227464786133928

	Input parameters:
	-----------------
	Reference wfn   = ROHF changed to UHF for Semicanonical Orbitals
	Reference EOM wfn=     UHF
	Memory (Mbytes) =  31950.0
	ABCD            =     NEW
	Cache Level     =    0
	Cache Type      =     LRU
	T3 Ws incore  =      No
	Num. of threads =     4
	Local CC        =     No


	CCEOM parameters:
	-----------------
	States sought per irrep     = A1 0, A2 0, B1 1, B2 0,
	Max. number of iterations   =   500
	Vectors stored per root     =    12
	Print HbarSS iterations?    =     0
	Excitation range for HBarSS =     2
	Eigenvalue tolerance        = 1.0e-06
	Eigenvalue toleranceSS      = 1.0e-06
	Residual vector tolerance   = 1.0e-08
	Residual vector toleranceSS = 1.0e-06
	Complex tolerance           = 1.0e-12
	Root for properties         =     1
	Sym of state for properties =     A1
	Guess vectors taken from    = SINGLES
	Restart EOM CC3             = NO
	Collapse with last vector   = YES


Symmetry of ground state: B1
Symmetry of excited state: B1
Symmetry of right eigenvector: A1
Obtaining initial guess from singles-singles block of Hbar...Done.

Iter=1    L=1     Root    EOM Energy     Delta E   Res. Norm    Conv?
                     1   0.5785386008   5.79e-01    5.14e-01      N
Iter=2    L=2     Root    EOM Energy     Delta E   Res. Norm    Conv?
                     1   0.4868053963  -9.17e-02    9.72e-02      N
Iter=3    L=3     Root    EOM Energy     Delta E   Res. Norm    Conv?
                     1   0.4806360280  -6.17e-03    6.33e-02      N
Iter=4    L=4     Root    EOM Energy     Delta E   Res. Norm    Conv?
                     1   0.4774461585  -3.19e-03    4.61e-02      N
Iter=5    L=5     Root    EOM Energy     Delta E   Res. Norm    Conv?
                     1   0.4762361069  -1.21e-03    2.69e-02      N
Iter=6    L=6     Root    EOM Energy     Delta E   Res. Norm    Conv?
                     1   0.4758059638  -4.30e-04    1.35e-02      N
Iter=7    L=7     Root    EOM Energy     Delta E   Res. Norm    Conv?
                     1   0.4756689111  -1.37e-04    8.71e-03      N
Iter=8    L=8     Root    EOM Energy     Delta E   Res. Norm    Conv?
                     1   0.4755939303  -7.50e-05    6.23e-03      N
Iter=9    L=9     Root    EOM Energy     Delta E   Res. Norm    Conv?
                     1   0.4755580160  -3.59e-05    3.84e-03      N
Iter=10   L=10    Root    EOM Energy     Delta E   Res. Norm    Conv?
                     1   0.4755470340  -1.10e-05    2.96e-03      N
Iter=11   L=11    Root    EOM Energy     Delta E   Res. Norm    Conv?
                     1   0.4755370846  -9.95e-06    2.40e-03      N
Iter=12   L=12    Root    EOM Energy     Delta E   Res. Norm    Conv?
                     1   0.4755333990  -3.69e-06    1.39e-03      N
Iter=13   L=2     Root    EOM Energy     Delta E   Res. Norm    Conv?
                     1   0.4755333990  -1.33e-15    1.39e-03      N
Iter=14   L=3     Root    EOM Energy     Delta E   Res. Norm    Conv?
                     1   0.4755326207  -7.78e-07    6.73e-04      N
Iter=15   L=4     Root    EOM Energy     Delta E   Res. Norm    Conv?
                     1   0.4755328678   2.47e-07    3.98e-04      N
Iter=16   L=5     Root    EOM Energy     Delta E   Res. Norm    Conv?
                     1   0.4755321535  -7.14e-07    2.25e-04      N
Iter=17   L=6     Root    EOM Energy     Delta E   Res. Norm    Conv?
                     1   0.4755317492  -4.04e-07    9.63e-05      N
Iter=18   L=7     Root    EOM Energy     Delta E   Res. Norm    Conv?
                     1   0.4755318472   9.80e-08    3.71e-05      N
Iter=19   L=8     Root    EOM Energy     Delta E   Res. Norm    Conv?
                     1   0.4755318040  -4.33e-08    1.48e-05      N
Iter=20   L=9     Root    EOM Energy     Delta E   Res. Norm    Conv?
                     1   0.4755317988  -5.21e-09    6.66e-06      N
Iter=21   L=10    Root    EOM Energy     Delta E   Res. Norm    Conv?
                     1   0.4755317967  -2.06e-09    2.73e-06      N
Iter=22   L=11    Root    EOM Energy     Delta E   Res. Norm    Conv?
                     1   0.4755317993   2.56e-09    1.01e-06      N
Iter=23   L=12    Root    EOM Energy     Delta E   Res. Norm    Conv?
                     1   0.4755318031   3.86e-09    4.45e-07      N
Iter=24   L=2     Root    EOM Energy     Delta E   Res. Norm    Conv?
                     1   0.4755318031   4.71e-13    4.45e-07      N
Iter=25   L=3     Root    EOM Energy     Delta E   Res. Norm    Conv?
                     1   0.4755318037   6.26e-10    3.03e-07      N
Iter=26   L=4     Root    EOM Energy     Delta E   Res. Norm    Conv?
                     1   0.4755318041   3.31e-10    2.17e-07      N
Iter=27   L=5     Root    EOM Energy     Delta E   Res. Norm    Conv?
                     1   0.4755318048   6.91e-10    1.41e-07      N
Iter=28   L=6     Root    EOM Energy     Delta E   Res. Norm    Conv?
                     1   0.4755318050   2.15e-10    8.80e-08      N
Iter=29   L=7     Root    EOM Energy     Delta E   Res. Norm    Conv?
                     1   0.4755318052   2.02e-10    5.75e-08      N
Iter=30   L=8     Root    EOM Energy     Delta E   Res. Norm    Conv?
                     1   0.4755318052   1.02e-11    4.00e-08      N
Iter=31   L=9     Root    EOM Energy     Delta E   Res. Norm    Conv?
                     1   0.4755318052  -1.97e-11    2.50e-08      N
Iter=32   L=10    Root    EOM Energy     Delta E   Res. Norm    Conv?
                     1   0.4755318052   3.32e-12    1.49e-08      N
Iter=33   L=11    Root    EOM Energy     Delta E   Res. Norm    Conv?
                     1   0.4755318051  -2.97e-11    9.61e-09      Y
Completed EOM_CCSD
Collapsing to only 1 vector(s).
Copying root 1 to CC3_MISC file.
Setting initial CC3 eigenvalue to    0.4755318051
Iter=1    L=1     Root    EOM Energy     Delta E   Res. Norm    Conv?
                     1   0.4702506330  -5.28e-03    4.35e-02      N
Iter=2    L=2     Root    EOM Energy     Delta E   Res. Norm    Conv?
                     1   0.4687013898  -1.55e-03    2.70e-02      N
Iter=3    L=3     Root    EOM Energy     Delta E   Res. Norm    Conv?
                     1   0.4672548326  -1.45e-03    4.25e-02      N
Iter=4    L=4     Root    EOM Energy     Delta E   Res. Norm    Conv?
                     1   0.4654398456  -1.81e-03    2.50e-02      N
Iter=5    L=5     Root    EOM Energy     Delta E   Res. Norm    Conv?
                     1   0.4650455971  -3.94e-04    1.30e-02      N
Iter=6    L=6     Root    EOM Energy     Delta E   Res. Norm    Conv?
                     1   0.4649137570  -1.32e-04    1.25e-02      N
Iter=7    L=7     Root    EOM Energy     Delta E   Res. Norm    Conv?
                     1   0.4647637465  -1.50e-04    9.41e-03      N
Iter=8    L=8     Root    EOM Energy     Delta E   Res. Norm    Conv?
                     1   0.4646805682  -8.32e-05    5.33e-03      N
Iter=9    L=9     Root    EOM Energy     Delta E   Res. Norm    Conv?
                     1   0.4646748723  -5.70e-06    2.38e-03      N
Iter=10   L=10    Root    EOM Energy     Delta E   Res. Norm    Conv?
                     1   0.4646738435  -1.03e-06    1.20e-03      N
Collapsing to 2 vector(s).
Change in CC3 energy from last iterated value   -0.0108579616
Iter=11   L=2     Root    EOM Energy     Delta E   Res. Norm    Conv?
                     1   0.4647014476   2.76e-05    1.20e-03      N
Iter=12   L=3     Root    EOM Energy     Delta E   Res. Norm    Conv?
                     1   0.4646992419  -2.21e-06    7.86e-04      N
Iter=13   L=4     Root    EOM Energy     Delta E   Res. Norm    Conv?
                     1   0.4646990053  -2.37e-07    4.87e-04      N
Iter=14   L=5     Root    EOM Energy     Delta E   Res. Norm    Conv?
                     1   0.4646993840   3.79e-07    2.26e-04      N
Iter=15   L=6     Root    EOM Energy     Delta E   Res. Norm    Conv?
                     1   0.4646987569  -6.27e-07    1.20e-04      N
Iter=16   L=7     Root    EOM Energy     Delta E   Res. Norm    Conv?
                     1   0.4646987436  -1.33e-08    7.43e-05      N
Iter=17   L=8     Root    EOM Energy     Delta E   Res. Norm    Conv?
                     1   0.4646990496   3.06e-07    5.46e-05      N
Iter=18   L=9     Root    EOM Energy     Delta E   Res. Norm    Conv?
                     1   0.4646991130   6.33e-08    4.65e-05      N
Iter=19   L=10    Root    EOM Energy     Delta E   Res. Norm    Conv?
                     1   0.4646990885  -2.45e-08    3.35e-05      N
Collapsing to 2 vector(s).
Change in CC3 energy from last iterated value    0.0000252450
Iter=20   L=2     Root    EOM Energy     Delta E   Res. Norm    Conv?
                     1   0.4646989933  -9.52e-08    3.31e-05      N
Iter=21   L=3     Root    EOM Energy     Delta E   Res. Norm    Conv?
                     1   0.4646990263   3.30e-08    1.83e-05      N
Iter=22   L=4     Root    EOM Energy     Delta E   Res. Norm    Conv?
                     1   0.4646990453   1.89e-08    9.91e-06      N
Iter=23   L=5     Root    EOM Energy     Delta E   Res. Norm    Conv?
                     1   0.4646990558   1.05e-08    4.59e-06      N
Iter=24   L=6     Root    EOM Energy     Delta E   Res. Norm    Conv?
                     1   0.4646990572   1.40e-09    1.97e-06      N
Iter=25   L=7     Root    EOM Energy     Delta E   Res. Norm    Conv?
                     1   0.4646990565  -7.01e-10    1.00e-06      N
Iter=26   L=8     Root    EOM Energy     Delta E   Res. Norm    Conv?
                     1   0.4646990551  -1.38e-09    5.08e-07      N
Iter=27   L=9     Root    EOM Energy     Delta E   Res. Norm    Conv?
                     1   0.4646990551   5.31e-11    2.74e-07      N
Iter=28   L=10    Root    EOM Energy     Delta E   Res. Norm    Conv?
                     1   0.4646990553   1.30e-10    1.91e-07      N
Collapsing to 2 vector(s).
Change in CC3 energy from last iterated value   -0.0000000332
Iter=29   L=2     Root    EOM Energy     Delta E   Res. Norm    Conv?
                     1   0.4646990554   1.25e-10    1.91e-07      N
Iter=30   L=3     Root    EOM Energy     Delta E   Res. Norm    Conv?
                     1   0.4646990553  -3.79e-11    1.18e-07      N
Iter=31   L=4     Root    EOM Energy     Delta E   Res. Norm    Conv?
                     1   0.4646990553   4.78e-12    6.16e-08      N
Iter=32   L=5     Root    EOM Energy     Delta E   Res. Norm    Conv?
                     1   0.4646990554   1.22e-11    2.62e-08      N
Iter=33   L=6     Root    EOM Energy     Delta E   Res. Norm    Conv?
                     1   0.4646990554   1.46e-13    1.16e-08      N
Iter=34   L=7     Root    EOM Energy     Delta E   Res. Norm    Conv?
                     1   0.4646990554   4.51e-12    5.64e-09      Y
Collapsing to only 1 vector(s).
Change in CC3 energy from last iterated value    0.0000000001

Procedure converged for 1 root(s).
Energy written to CC_INFO:Etot  -75.4676950310
States per irrep written to CC_INFO.
<R|R> =   1.0000000000000002
EOM CC3 R0 for root 0 =  -0.00400106952

Final Energetic Summary for Converged Roots of Irrep B1
                     Excitation Energy              Total Energy
                (eV)     (cm^-1)     (au)             (au)
EOM State 1     12.645   101989.6   0.4646990554   -75.467695030986

Largest components of excited wave function #1:
 RIA (libdpd indices) : (cscf notation)
         1 >   0      :       3a1 >    4a1 :    0.4932431016
         1 >   2      :       3a1 >    6a1 :   -0.1733395917
         1 >   5      :       3a1 >    9a1 :   -0.1361543262
         1 >   1      :       3a1 >    5a1 :    0.1267300785
         1 >   4      :       3a1 >    8a1 :    0.0513240724
 Ria (libdpd indices) : (cscf notation)
         1 >   0      :       3a1 >    4a1 :   -0.5836820024
         1 >   2      :       3a1 >    6a1 :    0.2331104760
         1 >   5      :       3a1 >    9a1 :    0.1711368499
         1 >   1      :       3a1 >    5a1 :    0.1387675976
         1 >   4      :       3a1 >    8a1 :    0.0587462057
 RIjAb (libdpd indices)     : (cscf notation)
        0   1 >   0   0     :    1b1    3a1 >    4a1    1b1 :   -0.3348973625
        0   1 >   2   0     :    1b1    3a1 >    6a1    1b1 :    0.1178813549
        0   1 >   0   1     :    1b1    3a1 >    4a1    2b1 :    0.0957413622
        0   1 >   5   0     :    1b1    3a1 >    9a1    1b1 :    0.0930015627
        0   1 >   1   0     :    1b1    3a1 >    5a1    1b1 :   -0.0838566912
 RIJAB (libdpd indices)     : (cscf notation)
        0   1 >   3   0     :    1b1    3a1 >    5b1    4a1 :    0.0199397353
        0   1 >   0   0     :    1b1    3a1 >    2b1    4a1 :   -0.0193871754
        0   1 >   4   0     :    1b2    3a1 >    6b2    4a1 :   -0.0190554165
        0   1 >   1   0     :    1b2    3a1 >    3b2    4a1 :   -0.0182986627
        0   1 >   0   0     :    1b2    3a1 >    2b2    4a1 :   -0.0168994572
 Rijab (libdpd indices)     : (cscf notation)
        0   1 >   4   0     :    1b2    3a1 >    6b2    4a1 :    0.0240819501
        0   1 >   1   0     :    1b2    3a1 >    3b2    4a1 :    0.0233626181
        0   1 >   0   0     :    1b2    3a1 >    2b2    4a1 :    0.0204116215
        0   1 >   8   0     :    1b2    3a1 >   10b2    4a1 :   -0.0135264112
        1   0 >   5   0     :    3a1    2a1 >    9a1    4a1 :   -0.0096065677

	Putting into environment energy for root of R irrep 1 and root 1.
	Putting into environment CURRENT ENERGY:              -75.4676950310

	Total # of sigma evaluations: 68

*** tstop() called on node15 at Sat Nov  5 10:27:32 2022
Module time:
	user time   =    1413.43 seconds =      23.56 minutes
	system time =      83.18 seconds =       1.39 minutes
	total time  =        375 seconds =       6.25 minutes
Total time:
	user time   =    1819.71 seconds =      30.33 minutes
	system time =     112.55 seconds =       1.88 minutes
	total time  =        487 seconds =       8.12 minutes

    Psi4 stopped on: Saturday, 05 November 2022 10:27AM
    Psi4 wall time for execution: 0:08:07.30

*** Psi4 exiting successfully. Buy a developer a beer!
