
    -----------------------------------------------------------------------
          Psi4: An Open-Source Ab Initio Electronic Structure Package
                               Psi4 1.2 release

                         Git: Rev {HEAD} 9d4a61c 


    R. M. Parrish, L. A. Burns, D. G. A. Smith, A. C. Simmonett,
    A. E. DePrince III, E. G. Hohenstein, U. Bozkaya, A. Yu. Sokolov,
    R. Di Remigio, R. M. Richard, J. F. Gonthier, A. M. James,
    H. R. McAlexander, A. Kumar, M. Saitow, X. Wang, B. P. Pritchard,
    P. Verma, H. F. Schaefer III, K. Patkowski, R. A. King, E. F. Valeev,
    F. A. Evangelista, J. M. Turney, T. D. Crawford, and C. D. Sherrill,
    J. Chem. Theory Comput. 13(7) pp 3185--3197 (2017).
    (doi: 10.1021/acs.jctc.7b00174)


                         Additional Contributions by
    P. Kraus, H. Kruse, M. H. Lechner, M. C. Schieber, and R. A. Shaw

    -----------------------------------------------------------------------


    Psi4 started on: Saturday, 05 November 2022 10:19AM

    Process ID: 48722
    Host:       node15
    PSIDATADIR: /home/qc/psi4conda/share/psi4
    Memory:     500.0 MiB
    Threads:    4
    
  ==> Input File <==

--------------------------------------------------------------------------
#h2o SPECIAL eom-cc3
memory 31950 mb

molecule h2o{
1 2
H        0.0000000000       -1.5472502885       -0.9724969541
O        0.0000000000        0.0093518610        0.1221131310
H        0.0000000000        1.5378984274       -0.9658803669

units bohr
}
 
set globals {
 reference rohf
 basis aug-cc-pvtz-dk
 freeze_core true
 cachelevel=0
 relativistic x2c
 maxiter=500
 dertype none
 ints_tolerance 20
 roots_per_irrep = [0,1]
}

set scf d_convergence 12
set ccenergy r_convergence 12
set cceom r_convergence 8

energy('eom-cc3')--------------------------------------------------------------------------

  Memory set to  29.756 GiB by Python driver.

*** tstart() called on node15
*** at Sat Nov  5 10:19:25 2022

   => Loading Basis Set <=

    Name: AUG-CC-PVTZ-DK
    Role: ORBITAL
    Keyword: BASIS
    atoms 1, 3 entry H          line    45 file /home/qc/psi4conda/share/psi4/basis/aug-cc-pvtz-dk.gbs 
    atoms 2    entry O          line   324 file /home/qc/psi4conda/share/psi4/basis/aug-cc-pvtz-dk.gbs 


         ---------------------------------------------------------
                                   SCF
            by Justin Turney, Rob Parrish, Andy Simmonett
                             and Daniel Smith
                             ROHF Reference
                        4 Threads,  30469 MiB Core
         ---------------------------------------------------------

  ==> Geometry <==

    Molecular point group: cs
    Full point group: Cs

    Geometry (in Bohr), charge = 1, multiplicity = 2:

       Center              X                  Y                   Z               Mass       
    ------------   -----------------  -----------------  -----------------  -----------------
         H            1.555032230986     0.972477183402     0.000000000000     1.007825032070
         O           -0.001569918514    -0.122132901698     0.000000000000    15.994914619560
         H           -1.530116484914     0.965860596202     0.000000000000     1.007825032070

  Running in cs symmetry.

  Rotational constants: A =     28.24482  B =     12.54893  C =      8.68864 [cm^-1]
  Rotational constants: A = 846758.48312  B = 376207.48745  C = 260478.94143 [MHz]
  Nuclear repulsion =    8.792056001515192

  Charge       = 1
  Multiplicity = 2
  Electrons    = 9
  Nalpha       = 5
  Nbeta        = 4

  ==> Algorithm <==

  SCF Algorithm Type is PK.
  DIIS enabled.
  MOM disabled.
  Fractional occupation disabled.
  Guess Type is GWH.
  Energy threshold   = 1.00e-08
  Density threshold  = 1.00e-12
  Integral threshold = 1.00e-20

  ==> Primary Basis <==

  Basis Set: AUG-CC-PVTZ-DK
    Blend: AUG-CC-PVTZ-DK
    Number of shells: 32
    Number of basis function: 92
    Number of Cartesian functions: 105
    Spherical Harmonics?: true
    Max angular momentum: 3

   => Loading Basis Set <=

    Name: (AUG-CC-PVTZ-DK AUX)
    Role: DECON
    Keyword: BASIS_RELATIVISTIC
    atoms 1, 3 entry H          line    45 file /home/qc/psi4conda/share/psi4/basis/aug-cc-pvtz-dk.gbs func decontract
    atoms 2    entry O          line   324 file /home/qc/psi4conda/share/psi4/basis/aug-cc-pvtz-dk.gbs func decontract

  ==> Pre-Iterations <==

   -------------------------------------------------------
    Irrep   Nso     Nmo     Nalpha   Nbeta   Ndocc  Nsocc
   -------------------------------------------------------
     A'        62      62       0       0       0       0
     A"        30      30       0       0       0       0
   -------------------------------------------------------
    Total      92      92       5       4       4       1
   -------------------------------------------------------

 OEINTS: Using relativistic (X2C) overlap, kinetic, and potential integrals.
         ------------------------------------------------------------
         Spin-Free X2C Integrals at the One-Electron Level (SFX2C-1e)
                 by Prakash Verma and Francesco A. Evangelista
         ------------------------------------------------------------

  ==> X2C Options <==

    Computational Basis: AUG-CC-PVTZ-DK
    X2C Basis: (AUG-CC-PVTZ-DK AUX)
    The X2C Hamiltonian will be computed in the X2C Basis

    Comparing only 62 out of 76 elements of H_Dirac

    Comparing only 30 out of 32 elements of H_Dirac

    The 1-norm of |H_X2C - H_Dirac| is: 6.763011576835

    WARNING: The X2C and Dirac Hamiltonians have substatially different eigenvalues!
             This is probably caused by the recontraction of the basis set.

  ==> Integral Setup <==

  Using in-core PK algorithm.
   Calculation information:
      Number of atoms:                   3
      Number of AO shells:              32
      Number of primitives:             52
      Number of atomic orbitals:       105
      Number of basis functions:        92

      Integral cutoff                 1.00e-20
      Number of threads:                 4

  Performing in-core PK
  Using 18305562 doubles for integral storage.
  We computed 171364 shell quartets total.
  Whereas there are 139656 unique shell quartets.
    22.70 percent of shell quartets recomputed by reordering.

  ==> DiskJK: Disk-Based J/K Matrices <==

    J tasked:                  Yes
    K tasked:                  Yes
    wK tasked:                  No
    Memory (MB):             22852
    Schwarz Cutoff:          1E-20

    OpenMP threads:              4

  Minimum eigenvalue in the overlap matrix is 4.0850493837E-04.
  Using Symmetric Orthogonalization.

  SCF Guess: Generalized Wolfsberg-Helmholtz.

  ==> Iterations <==

                        Total Energy        Delta E     RMS |[F,P]|

    Occupation by irrep:
             Ap   App 
    DOCC [     4,    0 ]
    SOCC [     1,    0 ]

   @ROHF iter   1:   -70.09365068286765   -7.00937e+01   1.09027e-01 
    Occupation by irrep:
             Ap   App 
    DOCC [     4,    0 ]
    SOCC [     0,    1 ]

   @ROHF iter   2:   -72.14811582335884   -2.05447e+00   4.71132e-02 DIIS
   @ROHF iter   3:   -75.07995814676886   -2.93184e+00   3.07776e-02 DIIS
   @ROHF iter   4:   -75.66400719160717   -5.84049e-01   7.32454e-03 DIIS
   @ROHF iter   5:   -75.70462505762652   -4.06179e-02   3.82408e-04 DIIS
   @ROHF iter   6:   -75.70484333343376   -2.18276e-04   8.65248e-05 DIIS
   @ROHF iter   7:   -75.70485470106078   -1.13676e-05   1.69808e-05 DIIS
   @ROHF iter   8:   -75.70485511945139   -4.18391e-07   2.30896e-06 DIIS
   @ROHF iter   9:   -75.70485512893544   -9.48404e-09   6.71459e-07 DIIS
   @ROHF iter  10:   -75.70485512972843   -7.92994e-10   1.70661e-07 DIIS
   @ROHF iter  11:   -75.70485512977858   -5.01501e-11   2.95109e-08 DIIS
   @ROHF iter  12:   -75.70485512978030   -1.71951e-12   9.60816e-09 DIIS
   @ROHF iter  13:   -75.70485512978078   -4.83169e-13   1.51455e-09 DIIS
   @ROHF iter  14:   -75.70485512978073    5.68434e-14   1.44068e-10 DIIS
   @ROHF iter  15:   -75.70485512978064    8.52651e-14   2.30143e-11 DIIS
   @ROHF iter  16:   -75.70485512978070   -5.68434e-14   4.26957e-12 DIIS
   @ROHF iter  17:   -75.70485512978061    8.52651e-14   9.18925e-13 DIIS

  ==> Post-Iterations <==

    Orbital Energies [Eh]
    ---------------------

    Doubly Occupied:                                                      

       1Ap   -21.118144     2Ap    -1.800984     3Ap    -1.175407  
       4Ap    -1.047936  

    Singly Occupied:                                                      

       1App   -0.686155  

    Virtual:                                                              

       5Ap    -0.181261     6Ap    -0.116686     7Ap    -0.060893  
       2App   -0.057655     8Ap    -0.042217     9Ap    -0.027238  
      10Ap     0.010451    11Ap     0.017919     3App    0.036513  
       4App    0.069825    12Ap     0.072485    13Ap     0.162797  
      14Ap     0.177775    15Ap     0.194988    16Ap     0.323151  
      17Ap     0.347546    18Ap     0.408966     5App    0.422742  
       6App    0.423090    19Ap     0.515915     7App    0.554169  
      20Ap     0.583295    21Ap     0.596899     8App    0.607508  
       9App    0.623388    22Ap     0.661244    23Ap     0.667605  
      24Ap     0.727819    25Ap     0.742748    10App    0.748233  
      26Ap     0.828372    27Ap     0.860825    11App    0.871375  
      28Ap     0.964756    12App    1.164329    13App    1.224132  
      29Ap     1.245147    30Ap     1.409292    31Ap     1.442317  
      32Ap     1.580286    33Ap     1.683395    14App    1.832132  
      15App    1.898600    34Ap     1.944261    35Ap     1.979868  
      16App    2.003238    36Ap     2.050835    37Ap     2.095816  
      17App    2.306414    38Ap     2.312983    39Ap     2.323098  
      18App    2.451287    40Ap     2.489023    41Ap     3.161020  
      42Ap     3.306788    19App    3.574419    20App    3.584594  
      43Ap     3.767733    44Ap     3.779918    21App    3.898813  
      22App    3.965425    23App    3.969305    45Ap     4.045813  
      46Ap     4.076712    47Ap     4.201278    48Ap     4.273817  
      49Ap     4.605473    24App    4.632938    50Ap     4.736207  
      51Ap     4.834498    25App    4.918905    52Ap     5.222975  
      53Ap     5.601821    54Ap     6.066026    26App    6.202961  
      55Ap     6.291521    27App    6.598866    28App    6.702290  
      29App    6.716852    56Ap     6.772470    57Ap     6.840505  
      30App    6.851667    58Ap     6.969663    59Ap     7.304864  
      60Ap     7.407015    61Ap     8.078734    62Ap    14.118545  

    Final Occupation by Irrep:
             Ap   App 
    DOCC [     4,    0 ]
    SOCC [     0,    1 ]

  Energy converged.

  @ROHF Final Energy:   -75.70485512978061

   => Energetics <=

    Nuclear Repulsion Energy =              8.7920560015151921
    One-Electron Energy =                -117.6008842923621387
    Two-Electron Energy =                  33.1039731610663353
    Total Energy =                        -75.7048551297806114



Properties will be evaluated at   0.000000,   0.000000,   0.000000 [a0]

Properties computed using the SCF density matrix

  Nuclear Dipole Moment: [e a0]
     X:     0.0124      Y:     0.9613      Z:     0.0000

  Electronic Dipole Moment: [e a0]
     X:     0.0038      Y:     0.0045      Z:     0.0000

  Dipole Moment: [e a0]
     X:     0.0162      Y:     0.9657      Z:     0.0000     Total:     0.9659

  Dipole Moment: [D]
     X:     0.0411      Y:     2.4546      Z:     0.0000     Total:     2.4550


*** tstop() called on node15 at Sat Nov  5 10:19:26 2022
Module time:
	user time   =       4.92 seconds =       0.08 minutes
	system time =       0.12 seconds =       0.00 minutes
	total time  =          1 seconds =       0.02 minutes
Total time:
	user time   =       4.92 seconds =       0.08 minutes
	system time =       0.12 seconds =       0.00 minutes
	total time  =          1 seconds =       0.02 minutes
   => Loading Basis Set <=

    Name: (AUG-CC-PVTZ-DK AUX)
    Role: DECON
    Keyword: BASIS_RELATIVISTIC
    atoms 1, 3 entry H          line    45 file /home/qc/psi4conda/share/psi4/basis/aug-cc-pvtz-dk.gbs func decontract
    atoms 2    entry O          line   324 file /home/qc/psi4conda/share/psi4/basis/aug-cc-pvtz-dk.gbs func decontract

 MINTS: Wrapper to libmints.
   by Justin Turney

   Calculation information:
      Number of threads:                 4
      Number of atoms:                   3
      Number of AO shells:              32
      Number of SO shells:              32
      Number of primitives:             52
      Number of atomic orbitals:       105
      Number of basis functions:        92

      Number of irreps:                  2
      Integral cutoff                 1.00e-20
      Number of functions per irrep: [  62   30 ]

 OEINTS: Using relativistic (X2C) overlap, kinetic, and potential integrals.
         ------------------------------------------------------------
         Spin-Free X2C Integrals at the One-Electron Level (SFX2C-1e)
                 by Prakash Verma and Francesco A. Evangelista
         ------------------------------------------------------------

  ==> X2C Options <==

    Computational Basis: AUG-CC-PVTZ-DK
    X2C Basis: (AUG-CC-PVTZ-DK AUX)
    The X2C Hamiltonian will be computed in the X2C Basis

    Comparing only 62 out of 76 elements of H_Dirac

    Comparing only 30 out of 32 elements of H_Dirac

    The 1-norm of |H_X2C - H_Dirac| is: 6.763011576631

    WARNING: The X2C and Dirac Hamiltonians have substatially different eigenvalues!
             This is probably caused by the recontraction of the basis set.

 OEINTS: Overlap, kinetic, potential, dipole, and quadrupole integrals
         stored in file 35.

      Computing two-electron integrals...done
      Computed 4405735 non-zero two-electron integrals.
        Stored in file 33.


*** tstart() called on node15
*** at Sat Nov  5 10:19:27 2022


	Wfn Parameters:
	--------------------
	Wavefunction         = CC3
	Number of irreps     = 2
	Number of MOs        = 92
	Number of active MOs = 91
	AO-Basis             = NONE
	Semicanonical        = true
	Reference            = ROHF changed to UHF for semicanonical orbitals
	Print Level          = 1

	IRREP	# MOs	# FZDC	# DOCC	# SOCC	# VIRT	# FZVR
	-----	-----	------	------	------	------	------
	 Ap	   62	    1	    3	    0	    58	    0
	 App	   30	    0	    0	    1	    29	    0
	Transforming integrals...
	IWL integrals will be deleted.
	(OO|OO)...
	Presorting SO-basis two-electron integrals.
	Sorting File: SO Ints (nn|nn) nbuckets = 1
	Transforming the one-electron integrals and constructing Fock matrices
	Starting AA/AB first half-transformation.
	Sorting AA/AB half-transformed integrals.
	Starting BB first half-transformation.
	Sorting BB half-transformed integrals.
	First half integral transformation complete.
	Starting AA second half-transformation.
	Starting AB second half-transformation.
	Starting BB second half-transformation.
	Two-electron integral transformation complete.
	(OO|OV)...
	Starting AA second half-transformation.
	Starting AB second half-transformation.
	Starting BB second half-transformation.
	Two-electron integral transformation complete.
	(OO|VV)...
	Starting AA second half-transformation.
	Starting AB second half-transformation.
	Starting BB second half-transformation.
	Two-electron integral transformation complete.
	(OV|OO)...
	Starting AA/AB first half-transformation.
	Sorting AA/AB half-transformed integrals.
	Starting BB first half-transformation.
	Sorting BB half-transformed integrals.
	First half integral transformation complete.
	Starting AA second half-transformation.
	Starting AB second half-transformation.
	Starting BB second half-transformation.
	Two-electron integral transformation complete.
	(OV|OV)...
	Starting AA second half-transformation.
	Starting AB second half-transformation.
	Starting BB second half-transformation.
	Two-electron integral transformation complete.
	(OV|VV)...
	Starting AA second half-transformation.
	Starting AB second half-transformation.
	Starting BB second half-transformation.
	Two-electron integral transformation complete.
	(VV|OO)...
	Starting AA/AB first half-transformation.
	Sorting AA/AB half-transformed integrals.
	Starting BB first half-transformation.
	Sorting BB half-transformed integrals.
	First half integral transformation complete.
	Starting AA second half-transformation.
	Starting AB second half-transformation.
	Starting BB second half-transformation.
	Two-electron integral transformation complete.
	(VV|OV)...
	Starting AA second half-transformation.
	Starting AB second half-transformation.
	Starting BB second half-transformation.
	Two-electron integral transformation complete.
	(VV|VV)...
	Starting AA second half-transformation.
	Starting AB second half-transformation.
	Starting BB second half-transformation.
	Two-electron integral transformation complete.
	Frozen core energy     =    -61.26805146333623

	Size of irrep 0 of <AB|CD> integrals:      4.239 (MW) /     33.916 (MB)
	Size of irrep 1 of <AB|CD> integrals:      2.829 (MW) /     22.633 (MB)
	Total:                                     7.069 (MW) /     56.549 (MB)

	Size of irrep 0 of <ab|cd> integrals:      4.360 (MW) /     34.878 (MB)
	Size of irrep 1 of <ab|cd> integrals:      3.028 (MW) /     24.221 (MB)
	Total:                                     7.387 (MW) /     59.099 (MB)

	Size of irrep 0 of <Ab|Cd> integrals:     17.927 (MW) /    143.414 (MB)
	Size of irrep 1 of <Ab|Cd> integrals:     11.710 (MW) /     93.681 (MB)
	Total:                                    29.637 (MW) /    237.095 (MB)

	Size of irrep 0 of <IA|BC> integrals:      0.854 (MW) /      6.829 (MB)
	Size of irrep 1 of <IA|BC> integrals:      0.488 (MW) /      3.902 (MB)
	Total:                                     1.341 (MW) /     10.731 (MB)

	Size of irrep 0 of <ia|bc> integrals:      0.742 (MW) /      5.935 (MB)
	Size of irrep 1 of <ia|bc> integrals:      0.313 (MW) /      2.506 (MB)
	Total:                                     1.055 (MW) /      8.441 (MB)

	Size of irrep 0 of <Ia|Bc> integrals:      0.864 (MW) /      6.910 (MB)
	Size of irrep 1 of <Ia|Bc> integrals:      0.506 (MW) /      4.052 (MB)
	Total:                                     1.370 (MW) /     10.962 (MB)

	Size of irrep 0 of <iA|bC> integrals:      0.737 (MW) /      5.894 (MB)
	Size of irrep 1 of <iA|bC> integrals:      0.298 (MW) /      2.382 (MB)
	Total:                                     1.034 (MW) /      8.275 (MB)

	Size of irrep 0 of tIjAb amplitudes:       0.038 (MW) /      0.305 (MB)
	Size of irrep 1 of tIjAb amplitudes:       0.010 (MW) /      0.082 (MB)
	Total:                                     0.048 (MW) /      0.387 (MB)

	Nuclear Rep. energy          =      8.79205600151519
	SCF energy                   =    -75.70485512978061
	One-electron energy          =    -37.30110563503570
	Two-electron (AA) energy     =      3.70076343842242
	Two-electron (BB) energy     =      1.75297344405212
	Two-electron (AB) energy     =      8.61850908460141
	Two-electron energy          =     14.07224596707595
	Reference energy             =    -75.70485512978078

*** tstop() called on node15 at Sat Nov  5 10:19:34 2022
Module time:
	user time   =      15.69 seconds =       0.26 minutes
	system time =       2.53 seconds =       0.04 minutes
	total time  =          7 seconds =       0.12 minutes
Total time:
	user time   =      22.48 seconds =       0.37 minutes
	system time =       2.75 seconds =       0.05 minutes
	total time  =          9 seconds =       0.15 minutes

*** tstart() called on node15
*** at Sat Nov  5 10:19:34 2022

            **************************
            *                        *
            *        CCENERGY        *
            *                        *
            **************************

    Nuclear Rep. energy (wfn)     =    8.792056001515192
    SCF energy          (wfn)     =  -75.704855129780611
    Reference energy    (file100) =  -75.704855129780782

    Input parameters:
    -----------------
    Wave function   =     CC3
    Reference wfn   =     ROHF changed to UHF for Semicanonical Orbitals
    Brueckner       =     No
    Memory (Mbytes) =     31950.0
    Maxiter         =    500
    R_Convergence   =     1.0e-12
    E_Convergence   =     1.0e-06
    Restart         =     Yes
    DIIS            =     Yes
    AO Basis        =     NONE
    ABCD            =     NEW
    Cache Level     =     0
    Cache Type      =     LRU
    Print Level     =     1
    Num. of threads =     4
    # Amps to Print =     10
    Print MP2 Amps? =     No
    Analyze T2 Amps =     No
    Print Pair Ener =     No
    Local CC        =     No
    T3 Ws incore    =     No
    SCS-MP2         =     False
    SCSN-MP2        =     False
    SCS-CCSD        =     False

MP2 correlation energy -0.2070909872961785
                Solving CC Amplitude Equations
                ------------------------------
  Iter             Energy              RMS        T1Diag      D1Diag    New D1Diag    D2Diag
  ----     ---------------------    ---------   ----------  ----------  ----------   --------
     0        -0.207149276947729    0.000e+00    0.013493    0.000000    0.000000    0.000000
     1        -0.222114101878164    3.329e-02    0.016629    0.000000    0.000000    0.000000
     2        -0.227115235870557    1.211e-02    0.018351    0.000000    0.000000    0.000000
     3        -0.227411450607007    4.097e-03    0.018913    0.000000    0.000000    0.000000
     4        -0.227422413164392    1.777e-03    0.018979    0.000000    0.000000    0.000000
     5        -0.227458416085576    7.372e-04    0.018950    0.000000    0.000000    0.000000
     6        -0.227461925214564    2.435e-04    0.018917    0.000000    0.000000    0.000000
     7        -0.227464158039607    9.319e-05    0.018906    0.000000    0.000000    0.000000
     8        -0.227463993869759    3.258e-05    0.018904    0.000000    0.000000    0.000000
     9        -0.227463957635899    1.091e-05    0.018904    0.000000    0.000000    0.000000
    10        -0.227464076621547    4.023e-06    0.018905    0.000000    0.000000    0.000000
    11        -0.227464013074329    1.361e-06    0.018905    0.000000    0.000000    0.000000
    12        -0.227463995641295    4.094e-07    0.018905    0.000000    0.000000    0.000000
    13        -0.227463985213718    1.134e-07    0.018905    0.000000    0.000000    0.000000
    14        -0.227463984843539    3.449e-08    0.018905    0.000000    0.000000    0.000000
    15        -0.227463984802036    1.336e-08    0.018905    0.000000    0.000000    0.000000
    16        -0.227463984726958    6.064e-09    0.018905    0.000000    0.000000    0.000000
    17        -0.227463984625090    2.708e-09    0.018905    0.000000    0.000000    0.000000
    18        -0.227463984561316    1.114e-09    0.018905    0.000000    0.000000    0.000000
    19        -0.227463984551917    4.483e-10    0.018905    0.000000    0.000000    0.000000
    20        -0.227463984552998    1.574e-10    0.018905    0.000000    0.000000    0.000000
    21        -0.227463984552137    5.481e-11    0.018905    0.000000    0.000000    0.000000
    22        -0.227463984552172    1.962e-11    0.018905    0.000000    0.000000    0.000000
    23        -0.227463984552123    6.227e-12    0.018905    0.000000    0.000000    0.000000
    24        -0.227463984552150    2.228e-12    0.018905    0.000000    0.000000    0.000000
    25        -0.227463984552152    7.447e-13    0.018905    0.000000    0.000000    0.000000

    Iterations converged.


    Largest TIA Amplitudes:
              0  26         0.0095925723
              0   0        -0.0088577750
              0  12        -0.0085035616
              0  28        -0.0083224954
              0  30         0.0078821223
              0   9         0.0077618586
              0  13        -0.0076392269
              0   3         0.0073014763
              3  58        -0.0062069159
              2  30         0.0058731217

    Largest Tia Amplitudes:
              2   2         0.0107770541
              1   4         0.0104791216
              0   0         0.0099164911
              0   3         0.0096692802
              1   1         0.0092782894
              1  10         0.0085887948
              0  30         0.0082184427
              2   0        -0.0081229726
              0  13        -0.0081110507
              2   7        -0.0079331804

    Largest TIJAB Amplitudes:
      3   2  63  15         0.0084195218
      3   1  63  10         0.0079979177
      3   2  70  30         0.0077614383
      3   1  62  12         0.0076399288
      3   1  63   4         0.0070653833
      2   1  15  10        -0.0070116359
      3   1  63   1         0.0069136298
      3   2  64  15        -0.0067435281
      3   2  61  13        -0.0066857458
      3   2  58  15         0.0066486096

    Largest Tijab Amplitudes:
      2   0  63  58         0.0080844098
      1   0  62  58         0.0076981388
      2   0  71  58         0.0074326265
      2   1  12   4         0.0070713117
      2   1  15  10         0.0070688028
      2   1  12  10         0.0067564594
      2   1  12  11         0.0063926523
      2   1  15   1         0.0063507644
      2   1  10   2         0.0061047417
      1   0  69  58        -0.0060591309

    Largest TIjAb Amplitudes:
      1   1  10  10        -0.0190562916
      2   2  15  15         0.0178886513
      1   1   4  10        -0.0173126913
      1   1  10   4        -0.0172228561
      3   0   0  58        -0.0165370084
      1   1   4   4        -0.0160993334
      3   0  12  58        -0.0160820108
      3   0  26  58         0.0152908543
      1   1   1  10        -0.0152265282
      2   0  70  58         0.0149390855

    SCF energy       (wfn)                    =  -75.704855129780611
    Reference energy (file100)                =  -75.704855129780782

    Opposite-spin MP2 correlation energy      =   -0.158097550607671
    Same-spin MP2 correlation energy          =   -0.045389452840097
    MP2 correlation energy                    =   -0.207090987296179
      * MP2 total energy                      =  -75.911946117076965
    CC3 correlation energy                    =   -0.227463984552152
      * CC3 total energy                      =  -75.932319114332941


*** tstop() called on node15 at Sat Nov  5 10:23:13 2022
Module time:
	user time   =     811.25 seconds =      13.52 minutes
	system time =      61.80 seconds =       1.03 minutes
	total time  =        219 seconds =       3.65 minutes
Total time:
	user time   =     833.73 seconds =      13.90 minutes
	system time =      64.55 seconds =       1.08 minutes
	total time  =        228 seconds =       3.80 minutes

*** tstart() called on node15
*** at Sat Nov  5 10:23:13 2022


			**************************
			*                        *
			*         CCHBAR         *
			*                        *
			**************************

Dots of (HeT1)c in names "CC3 Wxxx" in CC3_HET1 
Wamef terms
	<WAMEF|WAMEF> =   13.2952211204
	<Wamef|Wamef> =   10.8481568114
	<WAmEf|WAmEf> =    9.3108429236
	<WaMeF|WaMeF> =   12.6535500265
Wmnie terms
	<WMNIE (M>N,IE)|WMNIE> =    0.7440624543
	<Wmnie (m>n,ie)|Wmnie> =    0.3277737876
	<WMnIe (Mn,Ie)|WMnIe> =    0.7251646650
	<WmNiE (mN,iE)|WmNiE> =    0.6136771837
	<WMNIE(M>N,EI)|WMNIE(M>N,EI)> =    0.7440624543
	<Wmnie(m>n,ei)|Wmnie(m>n,ei)> =    0.3277737876
	<WMnIe(Mn,eI)|WMnIe(Mn,eI)> =    0.7251646650
	<WmNiE(mN,Ei)|WmNiE(mN,Ei)> =    0.6136771837
Doing Wmnij terms.
	<WMNIJ (M>N,I>J)|WMNIJ> =    9.2276084812
	<Wmnij (m>n,i>j)|Wmnij> =    4.0465106908
	<WMnIj (Mn,Ij)|WMnIj> =    6.3908222343
Doing Wmbij terms.
	<WMBIJ (MB,I>J)|WMBIJ> =    0.7494136062
	<WMBIJ (I>J,MB)|WMBIJ> =    0.7494136062
	<Wmbij (mb,i>j)|Wmbij> =    0.3335914514
	<Wmbij (i>j,mb)|Wmbij> =    0.3335914514
	<WMbIj (Mb,Ij)|WMbIj> =    0.7286175710
	<WMbIj (Ij,Mb)|WMbIj> =    0.7286175710
	<WmBiJ (mB,iJ)|WmBiJ> =    0.6170393719
	<WmBiJ (iJ,mB)|WmBiJ> =    0.6170393719
Doing Wmbej terms.
	<WMBEJ (all ME,JB)|WMBEJ> =   81.8670324790
	<Wmbej|Wmbej> =   61.9697337670
	<WMbEj|WMbEj> =    1.0297424375
	<WmBeJ|WmBeJ> =    1.0392478689
	<WMbeJ|WMbeJ> =   94.8913421668
	<WmBEj|WmBEj> =   67.9582661952
Doing Wabei terms.
	<WABEI (IE,B>A) |WABEI> =   13.3489605945
	<Wabei (ie,b>a)|Wabei> =   10.9469027088
	<WAbEi (iE,bA)|WAbEi> =    9.3857792529
	<WAbEi (iE,Ba)|WAbEi> =   12.6886359206

*** tstop() called on node15 at Sat Nov  5 10:23:15 2022
Module time:
	user time   =       5.39 seconds =       0.09 minutes
	system time =       1.21 seconds =       0.02 minutes
	total time  =          2 seconds =       0.03 minutes
Total time:
	user time   =     839.12 seconds =      13.99 minutes
	system time =      65.76 seconds =       1.10 minutes
	total time  =        230 seconds =       3.83 minutes

*** tstart() called on node15
*** at Sat Nov  5 10:23:15 2022


	**********************************************************
	*  CCEOM: An Equation of Motion Coupled Cluster Program  *
	**********************************************************

	Nuclear Rep. energy (wfn)     =    8.792056001515192
	SCF energy          (wfn)     =  -75.704855129780611
	Reference energy    (file100) =  -75.704855129780782
	CC3 energy          (file100) =   -0.227463984552152

	Input parameters:
	-----------------
	Reference wfn   = ROHF changed to UHF for Semicanonical Orbitals
	Reference EOM wfn=     UHF
	Memory (Mbytes) =  31950.0
	ABCD            =     NEW
	Cache Level     =    0
	Cache Type      =     LRU
	T3 Ws incore  =      No
	Num. of threads =     4
	Local CC        =     No


	CCEOM parameters:
	-----------------
	States sought per irrep     = Ap 0, App 1,
	Max. number of iterations   =   500
	Vectors stored per root     =    12
	Print HbarSS iterations?    =     0
	Excitation range for HBarSS =     2
	Eigenvalue tolerance        = 1.0e-06
	Eigenvalue toleranceSS      = 1.0e-06
	Residual vector tolerance   = 1.0e-08
	Residual vector toleranceSS = 1.0e-06
	Complex tolerance           = 1.0e-12
	Root for properties         =     1
	Sym of state for properties =     Ap
	Guess vectors taken from    = SINGLES
	Restart EOM CC3             = NO
	Collapse with last vector   = YES


Symmetry of ground state: App
Symmetry of excited state: App
Symmetry of right eigenvector: Ap
Obtaining initial guess from singles-singles block of Hbar...Done.

Iter=1    L=1     Root    EOM Energy     Delta E   Res. Norm    Conv?
                     1   0.5781163394   5.78e-01    5.14e-01      N
Iter=2    L=2     Root    EOM Energy     Delta E   Res. Norm    Conv?
                     1   0.4866196605  -9.15e-02    9.72e-02      N
Iter=3    L=3     Root    EOM Energy     Delta E   Res. Norm    Conv?
                     1   0.4804342487  -6.19e-03    6.36e-02      N
Iter=4    L=4     Root    EOM Energy     Delta E   Res. Norm    Conv?
                     1   0.4772100355  -3.22e-03    4.64e-02      N
Iter=5    L=5     Root    EOM Energy     Delta E   Res. Norm    Conv?
                     1   0.4759843391  -1.23e-03    2.71e-02      N
Iter=6    L=6     Root    EOM Energy     Delta E   Res. Norm    Conv?
                     1   0.4755502942  -4.34e-04    1.36e-02      N
Iter=7    L=7     Root    EOM Energy     Delta E   Res. Norm    Conv?
                     1   0.4754119210  -1.38e-04    8.78e-03      N
Iter=8    L=8     Root    EOM Energy     Delta E   Res. Norm    Conv?
                     1   0.4753361965  -7.57e-05    6.28e-03      N
Iter=9    L=9     Root    EOM Energy     Delta E   Res. Norm    Conv?
                     1   0.4752999615  -3.62e-05    3.86e-03      N
Iter=10   L=10    Root    EOM Energy     Delta E   Res. Norm    Conv?
                     1   0.4752889117  -1.10e-05    2.97e-03      N
Iter=11   L=11    Root    EOM Energy     Delta E   Res. Norm    Conv?
                     1   0.4752791288  -9.78e-06    2.39e-03      N
Iter=12   L=12    Root    EOM Energy     Delta E   Res. Norm    Conv?
                     1   0.4752755695  -3.56e-06    1.38e-03      N
Iter=13   L=2     Root    EOM Energy     Delta E   Res. Norm    Conv?
                     1   0.4752755695   5.00e-16    1.38e-03      N
Iter=14   L=3     Root    EOM Energy     Delta E   Res. Norm    Conv?
                     1   0.4752747755  -7.94e-07    6.75e-04      N
Iter=15   L=4     Root    EOM Energy     Delta E   Res. Norm    Conv?
                     1   0.4752750203   2.45e-07    4.06e-04      N
Iter=16   L=5     Root    EOM Energy     Delta E   Res. Norm    Conv?
                     1   0.4752742793  -7.41e-07    2.34e-04      N
Iter=17   L=6     Root    EOM Energy     Delta E   Res. Norm    Conv?
                     1   0.4752738469  -4.32e-07    1.05e-04      N
Iter=18   L=7     Root    EOM Energy     Delta E   Res. Norm    Conv?
                     1   0.4752739540   1.07e-07    4.83e-05      N
Iter=19   L=8     Root    EOM Energy     Delta E   Res. Norm    Conv?
                     1   0.4752738816  -7.24e-08    3.21e-05      N
Iter=20   L=9     Root    EOM Energy     Delta E   Res. Norm    Conv?
                     1   0.4752738677  -1.38e-08    2.82e-05      N
Iter=21   L=10    Root    EOM Energy     Delta E   Res. Norm    Conv?
                     1   0.4752738642  -3.55e-09    1.84e-05      N
Iter=22   L=11    Root    EOM Energy     Delta E   Res. Norm    Conv?
                     1   0.4752738822   1.80e-08    1.07e-05      N
Iter=23   L=12    Root    EOM Energy     Delta E   Res. Norm    Conv?
                     1   0.4752738966   1.44e-08    5.21e-06      N
Iter=24   L=2     Root    EOM Energy     Delta E   Res. Norm    Conv?
                     1   0.4752738966   1.13e-14    5.21e-06      N
Iter=25   L=3     Root    EOM Energy     Delta E   Res. Norm    Conv?
                     1   0.4752738826  -1.41e-08    2.35e-06      N
Iter=26   L=4     Root    EOM Energy     Delta E   Res. Norm    Conv?
                     1   0.4752738790  -3.58e-09    1.39e-06      N
Iter=27   L=5     Root    EOM Energy     Delta E   Res. Norm    Conv?
                     1   0.4752738802   1.22e-09    9.41e-07      N
Iter=28   L=6     Root    EOM Energy     Delta E   Res. Norm    Conv?
                     1   0.4752738809   6.77e-10    4.73e-07      N
Iter=29   L=7     Root    EOM Energy     Delta E   Res. Norm    Conv?
                     1   0.4752738811   1.90e-10    2.04e-07      N
Iter=30   L=8     Root    EOM Energy     Delta E   Res. Norm    Conv?
                     1   0.4752738809  -1.27e-10    9.23e-08      N
Iter=31   L=9     Root    EOM Energy     Delta E   Res. Norm    Conv?
                     1   0.4752738809  -5.92e-11    4.80e-08      N
Iter=32   L=10    Root    EOM Energy     Delta E   Res. Norm    Conv?
                     1   0.4752738808  -3.33e-11    3.26e-08      N
Iter=33   L=11    Root    EOM Energy     Delta E   Res. Norm    Conv?
                     1   0.4752738808  -5.96e-11    2.18e-08      N
Iter=34   L=12    Root    EOM Energy     Delta E   Res. Norm    Conv?
                     1   0.4752738808   7.40e-12    1.51e-08      N
Iter=35   L=2     Root    EOM Energy     Delta E   Res. Norm    Conv?
                     1   0.4752738808   1.81e-12    2.08e-08      N
Iter=36   L=3     Root    EOM Energy     Delta E   Res. Norm    Conv?
                     1   0.4752738808  -4.74e-11    1.64e-08      N
Iter=37   L=4     Root    EOM Energy     Delta E   Res. Norm    Conv?
                     1   0.4752738807  -1.83e-11    1.12e-08      N
Iter=38   L=5     Root    EOM Energy     Delta E   Res. Norm    Conv?
                     1   0.4752738807  -2.24e-11    6.93e-09      Y
Completed EOM_CCSD
Collapsing to only 1 vector(s).
Copying root 1 to CC3_MISC file.
Setting initial CC3 eigenvalue to    0.4752738807
Iter=1    L=1     Root    EOM Energy     Delta E   Res. Norm    Conv?
                     1   0.4699853212  -5.29e-03    4.35e-02      N
Iter=2    L=2     Root    EOM Energy     Delta E   Res. Norm    Conv?
                     1   0.4684382802  -1.55e-03    2.70e-02      N
Iter=3    L=3     Root    EOM Energy     Delta E   Res. Norm    Conv?
                     1   0.4669908789  -1.45e-03    4.25e-02      N
Iter=4    L=4     Root    EOM Energy     Delta E   Res. Norm    Conv?
                     1   0.4651770686  -1.81e-03    2.50e-02      N
Iter=5    L=5     Root    EOM Energy     Delta E   Res. Norm    Conv?
                     1   0.4647830176  -3.94e-04    1.30e-02      N
Iter=6    L=6     Root    EOM Energy     Delta E   Res. Norm    Conv?
                     1   0.4646514669  -1.32e-04    1.25e-02      N
Iter=7    L=7     Root    EOM Energy     Delta E   Res. Norm    Conv?
                     1   0.4645022506  -1.49e-04    9.39e-03      N
Iter=8    L=8     Root    EOM Energy     Delta E   Res. Norm    Conv?
                     1   0.4644194740  -8.28e-05    5.32e-03      N
Iter=9    L=9     Root    EOM Energy     Delta E   Res. Norm    Conv?
                     1   0.4644138037  -5.67e-06    2.38e-03      N
Iter=10   L=10    Root    EOM Energy     Delta E   Res. Norm    Conv?
                     1   0.4644127503  -1.05e-06    1.20e-03      N
Collapsing to 2 vector(s).
Change in CC3 energy from last iterated value   -0.0108611305
Iter=11   L=2     Root    EOM Energy     Delta E   Res. Norm    Conv?
                     1   0.4644403550   2.76e-05    1.20e-03      N
Iter=12   L=3     Root    EOM Energy     Delta E   Res. Norm    Conv?
                     1   0.4644381542  -2.20e-06    7.84e-04      N
Iter=13   L=4     Root    EOM Energy     Delta E   Res. Norm    Conv?
                     1   0.4644379205  -2.34e-07    4.86e-04      N
Iter=14   L=5     Root    EOM Energy     Delta E   Res. Norm    Conv?
                     1   0.4644383022   3.82e-07    2.26e-04      N
Iter=15   L=6     Root    EOM Energy     Delta E   Res. Norm    Conv?
                     1   0.4644376738  -6.28e-07    1.20e-04      N
Iter=16   L=7     Root    EOM Energy     Delta E   Res. Norm    Conv?
                     1   0.4644376608  -1.30e-08    7.52e-05      N
Iter=17   L=8     Root    EOM Energy     Delta E   Res. Norm    Conv?
                     1   0.4644379697   3.09e-07    5.53e-05      N
Iter=18   L=9     Root    EOM Energy     Delta E   Res. Norm    Conv?
                     1   0.4644380313   6.16e-08    4.67e-05      N
Iter=19   L=10    Root    EOM Energy     Delta E   Res. Norm    Conv?
                     1   0.4644380050  -2.63e-08    3.34e-05      N
Collapsing to 2 vector(s).
Change in CC3 energy from last iterated value    0.0000252547
Iter=20   L=2     Root    EOM Energy     Delta E   Res. Norm    Conv?
                     1   0.4644379099  -9.51e-08    3.30e-05      N
Iter=21   L=3     Root    EOM Energy     Delta E   Res. Norm    Conv?
                     1   0.4644379423   3.25e-08    1.83e-05      N
Iter=22   L=4     Root    EOM Energy     Delta E   Res. Norm    Conv?
                     1   0.4644379616   1.92e-08    1.01e-05      N
Iter=23   L=5     Root    EOM Energy     Delta E   Res. Norm    Conv?
                     1   0.4644379726   1.10e-08    4.88e-06      N
Iter=24   L=6     Root    EOM Energy     Delta E   Res. Norm    Conv?
                     1   0.4644379742   1.66e-09    2.30e-06      N
Iter=25   L=7     Root    EOM Energy     Delta E   Res. Norm    Conv?
                     1   0.4644379735  -7.69e-10    1.36e-06      N
Iter=26   L=8     Root    EOM Energy     Delta E   Res. Norm    Conv?
                     1   0.4644379718  -1.72e-09    8.18e-07      N
Iter=27   L=9     Root    EOM Energy     Delta E   Res. Norm    Conv?
                     1   0.4644379721   3.54e-10    5.05e-07      N
Iter=28   L=10    Root    EOM Energy     Delta E   Res. Norm    Conv?
                     1   0.4644379725   3.94e-10    3.14e-07      N
Collapsing to 2 vector(s).
Change in CC3 energy from last iterated value   -0.0000000325
Iter=29   L=2     Root    EOM Energy     Delta E   Res. Norm    Conv?
                     1   0.4644379726   1.22e-10    3.14e-07      N
Iter=30   L=3     Root    EOM Energy     Delta E   Res. Norm    Conv?
                     1   0.4644379726  -1.47e-11    1.56e-07      N
Iter=31   L=4     Root    EOM Energy     Delta E   Res. Norm    Conv?
                     1   0.4644379726   3.92e-11    8.00e-08      N
Iter=32   L=5     Root    EOM Energy     Delta E   Res. Norm    Conv?
                     1   0.4644379727   2.70e-11    4.99e-08      N
Iter=33   L=6     Root    EOM Energy     Delta E   Res. Norm    Conv?
                     1   0.4644379727   2.30e-12    4.45e-08      N
Iter=34   L=7     Root    EOM Energy     Delta E   Res. Norm    Conv?
                     1   0.4644379727   9.24e-12    3.43e-08      N
Iter=35   L=8     Root    EOM Energy     Delta E   Res. Norm    Conv?
                     1   0.4644379727  -1.13e-11    1.83e-08      N
Iter=36   L=9     Root    EOM Energy     Delta E   Res. Norm    Conv?
                     1   0.4644379727  -2.29e-12    9.31e-09      Y
Collapsing to only 1 vector(s).
Change in CC3 energy from last iterated value    0.0000000002

Procedure converged for 1 root(s).
Energy written to CC_INFO:Etot  -75.4678811417
States per irrep written to CC_INFO.
<R|R> =   0.9999999999999998
EOM CC3 R0 for root 0 =  -0.00400701764

Final Energetic Summary for Converged Roots of Irrep App
                     Excitation Energy              Total Energy
                (eV)     (cm^-1)     (au)             (au)
EOM State 1     12.638   101932.3   0.4644379727   -75.467881141661

Largest components of excited wave function #1:
 RIA (libdpd indices) : (cscf notation)
         2 >   0      :       4ap >    5ap :    0.4929250879
         2 >   3      :       4ap >    8ap :   -0.1734387988
         2 >   9      :       4ap >   14ap :   -0.1362931515
         2 >   2      :       4ap >    7ap :    0.1270422242
         2 >   7      :       4ap >   12ap :   -0.0512176390
 Ria (libdpd indices) : (cscf notation)
         2 >   0      :       4ap >    5ap :   -0.5830344592
         2 >   3      :       4ap >    8ap :   -0.2332071956
         2 >   9      :       4ap >   14ap :   -0.1710483690
         2 >   2      :       4ap >    7ap :    0.1390408571
         2 >   7      :       4ap >   12ap :   -0.0586159173
 RIjAb (libdpd indices)     : (cscf notation)
        0   2 >   0   0     :   1app    4ap >    5ap   1app :   -0.3346076857
        0   2 >   3   0     :   1app    4ap >    8ap   1app :    0.1178824144
        0   2 >   0   1     :   1app    4ap >    5ap   2app :    0.0956570446
        0   2 >   9   0     :   1app    4ap >   14ap   1app :    0.0930369387
        0   2 >   2   0     :   1app    4ap >    7ap   1app :   -0.0840490666
 RIJAB (libdpd indices)     : (cscf notation)
        0   2 >   5   0     :   1app    4ap >   7app    5ap :    0.0199172885
        0   2 >   0   0     :   1app    4ap >   2app    5ap :    0.0193665298
        2   1 >  10   0     :    4ap    3ap >   15ap    5ap :    0.0188981144
        2   1 >   4   0     :    4ap    3ap >    9ap    5ap :    0.0181780232
        2   1 >   1   0     :    4ap    3ap >    6ap    5ap :    0.0168504962
 Rijab (libdpd indices)     : (cscf notation)
        2   1 >  10   0     :    4ap    3ap >   15ap    5ap :   -0.0238092651
        2   1 >   4   0     :    4ap    3ap >    9ap    5ap :   -0.0231744977
        2   1 >   1   0     :    4ap    3ap >    6ap    5ap :   -0.0203456438
        2   1 >  20   0     :    4ap    3ap >   25ap    5ap :    0.0133846692
        2   0 >   9   0     :    4ap    2ap >   14ap    5ap :   -0.0095246534

	Putting into environment energy for root of R irrep 1 and root 1.
	Putting into environment CURRENT ENERGY:              -75.4678811417

	Total # of sigma evaluations: 74

*** tstop() called on node15 at Sat Nov  5 10:37:28 2022
Module time:
	user time   =    3206.98 seconds =      53.45 minutes
	system time =     201.88 seconds =       3.36 minutes
	total time  =        853 seconds =      14.22 minutes
Total time:
	user time   =    4046.10 seconds =      67.44 minutes
	system time =     267.64 seconds =       4.46 minutes
	total time  =       1083 seconds =      18.05 minutes

    Psi4 stopped on: Saturday, 05 November 2022 10:37AM
    Psi4 wall time for execution: 0:18:03.66

*** Psi4 exiting successfully. Buy a developer a beer!
