
    -----------------------------------------------------------------------
          Psi4: An Open-Source Ab Initio Electronic Structure Package
                               Psi4 1.2 release

                         Git: Rev {HEAD} 9d4a61c 


    R. M. Parrish, L. A. Burns, D. G. A. Smith, A. C. Simmonett,
    A. E. DePrince III, E. G. Hohenstein, U. Bozkaya, A. Yu. Sokolov,
    R. Di Remigio, R. M. Richard, J. F. Gonthier, A. M. James,
    H. R. McAlexander, A. Kumar, M. Saitow, X. Wang, B. P. Pritchard,
    P. Verma, H. F. Schaefer III, K. Patkowski, R. A. King, E. F. Valeev,
    F. A. Evangelista, J. M. Turney, T. D. Crawford, and C. D. Sherrill,
    J. Chem. Theory Comput. 13(7) pp 3185--3197 (2017).
    (doi: 10.1021/acs.jctc.7b00174)


                         Additional Contributions by
    P. Kraus, H. Kruse, M. H. Lechner, M. C. Schieber, and R. A. Shaw

    -----------------------------------------------------------------------


    Psi4 started on: Saturday, 05 November 2022 10:19AM

    Process ID: 15241
    Host:       node16
    PSIDATADIR: /home/qc/psi4conda/share/psi4
    Memory:     500.0 MiB
    Threads:    4
    
  ==> Input File <==

--------------------------------------------------------------------------
#h2o SPECIAL eom-cc3
memory 31950 mb

molecule h2o{
1 2
H        0.0000000000       -1.5406051463       -0.9684521297
O        0.0000000000       -0.0093613676        0.1272632945
H        0.0000000000        1.5499665140       -0.9750753548

units bohr
}
 
set globals {
 reference rohf
 basis aug-cc-pvtz-dk
 freeze_core true
 cachelevel=0
 relativistic x2c
 maxiter=500
 dertype none
 ints_tolerance 20
 roots_per_irrep = [0,1]
}

set scf d_convergence 12
set ccenergy r_convergence 12
set cceom r_convergence 8

energy('eom-cc3')--------------------------------------------------------------------------

  Memory set to  29.756 GiB by Python driver.

*** tstart() called on node16
*** at Sat Nov  5 10:19:14 2022

   => Loading Basis Set <=

    Name: AUG-CC-PVTZ-DK
    Role: ORBITAL
    Keyword: BASIS
    atoms 1, 3 entry H          line    45 file /home/qc/psi4conda/share/psi4/basis/aug-cc-pvtz-dk.gbs 
    atoms 2    entry O          line   324 file /home/qc/psi4conda/share/psi4/basis/aug-cc-pvtz-dk.gbs 


         ---------------------------------------------------------
                                   SCF
            by Justin Turney, Rob Parrish, Andy Simmonett
                             and Daniel Smith
                             ROHF Reference
                        4 Threads,  30469 MiB Core
         ---------------------------------------------------------

  ==> Geometry <==

    Molecular point group: cs
    Full point group: Cs

    Geometry (in Bohr), charge = 1, multiplicity = 2:

       Center              X                  Y                   Z               Mass       
    ------------   -----------------  -----------------  -----------------  -----------------
         H            1.532815293109     0.972717952659     0.000000000000     1.007825032070
         O            0.001571514409    -0.122997471541     0.000000000000    15.994914619560
         H           -1.557756367191     0.979341177759     0.000000000000     1.007825032070

  Running in cs symmetry.

  Rotational constants: A =     27.84918  B =     12.50491  C =      8.62989 [cm^-1]
  Rotational constants: A = 834897.28460  B = 374887.82384  C = 258717.70447 [MHz]
  Nuclear repulsion =    8.761648802585249

  Charge       = 1
  Multiplicity = 2
  Electrons    = 9
  Nalpha       = 5
  Nbeta        = 4

  ==> Algorithm <==

  SCF Algorithm Type is PK.
  DIIS enabled.
  MOM disabled.
  Fractional occupation disabled.
  Guess Type is GWH.
  Energy threshold   = 1.00e-08
  Density threshold  = 1.00e-12
  Integral threshold = 1.00e-20

  ==> Primary Basis <==

  Basis Set: AUG-CC-PVTZ-DK
    Blend: AUG-CC-PVTZ-DK
    Number of shells: 32
    Number of basis function: 92
    Number of Cartesian functions: 105
    Spherical Harmonics?: true
    Max angular momentum: 3

   => Loading Basis Set <=

    Name: (AUG-CC-PVTZ-DK AUX)
    Role: DECON
    Keyword: BASIS_RELATIVISTIC
    atoms 1, 3 entry H          line    45 file /home/qc/psi4conda/share/psi4/basis/aug-cc-pvtz-dk.gbs func decontract
    atoms 2    entry O          line   324 file /home/qc/psi4conda/share/psi4/basis/aug-cc-pvtz-dk.gbs func decontract

  ==> Pre-Iterations <==

   -------------------------------------------------------
    Irrep   Nso     Nmo     Nalpha   Nbeta   Ndocc  Nsocc
   -------------------------------------------------------
     A'        62      62       0       0       0       0
     A"        30      30       0       0       0       0
   -------------------------------------------------------
    Total      92      92       5       4       4       1
   -------------------------------------------------------

 OEINTS: Using relativistic (X2C) overlap, kinetic, and potential integrals.
         ------------------------------------------------------------
         Spin-Free X2C Integrals at the One-Electron Level (SFX2C-1e)
                 by Prakash Verma and Francesco A. Evangelista
         ------------------------------------------------------------

  ==> X2C Options <==

    Computational Basis: AUG-CC-PVTZ-DK
    X2C Basis: (AUG-CC-PVTZ-DK AUX)
    The X2C Hamiltonian will be computed in the X2C Basis

    Comparing only 62 out of 76 elements of H_Dirac

    Comparing only 30 out of 32 elements of H_Dirac

    The 1-norm of |H_X2C - H_Dirac| is: 6.690343821293

    WARNING: The X2C and Dirac Hamiltonians have substatially different eigenvalues!
             This is probably caused by the recontraction of the basis set.

  ==> Integral Setup <==

  Using in-core PK algorithm.
   Calculation information:
      Number of atoms:                   3
      Number of AO shells:              32
      Number of primitives:             52
      Number of atomic orbitals:       105
      Number of basis functions:        92

      Integral cutoff                 1.00e-20
      Number of threads:                 4

  Performing in-core PK
  Using 18305562 doubles for integral storage.
  We computed 171364 shell quartets total.
  Whereas there are 139656 unique shell quartets.
    22.70 percent of shell quartets recomputed by reordering.

  ==> DiskJK: Disk-Based J/K Matrices <==

    J tasked:                  Yes
    K tasked:                  Yes
    wK tasked:                  No
    Memory (MB):             22852
    Schwarz Cutoff:          1E-20

    OpenMP threads:              4

  Minimum eigenvalue in the overlap matrix is 4.1219550718E-04.
  Using Symmetric Orthogonalization.

  SCF Guess: Generalized Wolfsberg-Helmholtz.

  ==> Iterations <==

                        Total Energy        Delta E     RMS |[F,P]|

    Occupation by irrep:
             Ap   App 
    DOCC [     4,    0 ]
    SOCC [     1,    0 ]

   @ROHF iter   1:   -70.08346291250609   -7.00835e+01   1.12744e-01 
    Occupation by irrep:
             Ap   App 
    DOCC [     4,    0 ]
    SOCC [     0,    1 ]

   @ROHF iter   2:   -72.11612083790814   -2.03266e+00   4.52552e-02 DIIS
   @ROHF iter   3:   -75.07012433250071   -2.95400e+00   2.84139e-02 DIIS
   @ROHF iter   4:   -75.66268543548534   -5.92561e-01   7.05198e-03 DIIS
   @ROHF iter   5:   -75.70436172497716   -4.16763e-02   3.11697e-04 DIIS
   @ROHF iter   6:   -75.70458464593113   -2.22921e-04   7.71558e-05 DIIS
   @ROHF iter   7:   -75.70459630244360   -1.16565e-05   1.73167e-05 DIIS
   @ROHF iter   8:   -75.70459672822483   -4.25781e-07   2.09642e-06 DIIS
   @ROHF iter   9:   -75.70459673750972   -9.28489e-09   4.89666e-07 DIIS
   @ROHF iter  10:   -75.70459673828503   -7.75316e-10   1.41839e-07 DIIS
   @ROHF iter  11:   -75.70459673833329   -4.82601e-11   2.98616e-08 DIIS
   @ROHF iter  12:   -75.70459673833540   -2.10321e-12   9.57497e-09 DIIS
   @ROHF iter  13:   -75.70459673833560   -1.98952e-13   1.52879e-09 DIIS
   @ROHF iter  14:   -75.70459673833545    1.42109e-13   1.31238e-10 DIIS
   @ROHF iter  15:   -75.70459673833560   -1.42109e-13   2.31114e-11 DIIS
   @ROHF iter  16:   -75.70459673833565   -5.68434e-14   4.71080e-12 DIIS
   @ROHF iter  17:   -75.70459673833562    2.84217e-14   9.69650e-13 DIIS

  ==> Post-Iterations <==

    Orbital Energies [Eh]
    ---------------------

    Doubly Occupied:                                                      

       1Ap   -21.117972     2Ap    -1.798994     3Ap    -1.172473  
       4Ap    -1.047170  

    Singly Occupied:                                                      

       1App   -0.685389  

    Virtual:                                                              

       5Ap    -0.181719     6Ap    -0.117001     7Ap    -0.060933  
       2App   -0.057531     8Ap    -0.042408     9Ap    -0.027961  
      10Ap     0.010462    11Ap     0.017952     3App    0.036571  
       4App    0.069447    12Ap     0.072135    13Ap     0.162737  
      14Ap     0.177203    15Ap     0.194071    16Ap     0.323336  
      17Ap     0.347777    18Ap     0.409055     5App    0.423209  
       6App    0.423543    19Ap     0.514858     7App    0.554054  
      20Ap     0.584291    21Ap     0.596148     8App    0.607585  
       9App    0.623363    22Ap     0.661362    23Ap     0.666667  
      24Ap     0.727222    25Ap     0.742103    10App    0.747545  
      26Ap     0.827420    27Ap     0.860040    11App    0.870959  
      28Ap     0.966063    12App    1.163054    13App    1.221886  
      29Ap     1.244406    30Ap     1.409056    31Ap     1.444602  
      32Ap     1.575426    33Ap     1.679793    14App    1.832375  
      15App    1.897747    34Ap     1.944470    35Ap     1.980385  
      16App    2.003590    36Ap     2.051281    37Ap     2.099914  
      17App    2.306670    38Ap     2.309652    39Ap     2.324999  
      18App    2.450117    40Ap     2.485778    41Ap     3.156065  
      42Ap     3.300737    19App    3.572874    20App    3.581292  
      43Ap     3.764187    44Ap     3.775858    21App    3.893280  
      22App    3.964762    23App    3.967620    45Ap     4.043260  
      46Ap     4.075061    47Ap     4.197282    48Ap     4.268251  
      49Ap     4.598006    24App    4.623427    50Ap     4.726169  
      51Ap     4.827252    25App    4.909686    52Ap     5.212247  
      53Ap     5.602920    54Ap     6.066774    26App    6.203028  
      55Ap     6.290626    27App    6.592701    28App    6.700060  
      29App    6.712310    56Ap     6.774538    57Ap     6.828730  
      30App    6.852168    58Ap     6.961108    59Ap     7.301390  
      60Ap     7.399175    61Ap     8.061779    62Ap    14.020933  

    Final Occupation by Irrep:
             Ap   App 
    DOCC [     4,    0 ]
    SOCC [     0,    1 ]

  Energy converged.

  @ROHF Final Energy:   -75.70459673833562

   => Energetics <=

    Nuclear Repulsion Energy =              8.7616488025852490
    One-Electron Energy =                -117.5520732795590533
    Two-Electron Energy =                  33.0858277386381729
    Total Energy =                        -75.7045967383356384



Properties will be evaluated at   0.000000,   0.000000,   0.000000 [a0]

Properties computed using the SCF density matrix

  Nuclear Dipole Moment: [e a0]
     X:    -0.0124      Y:     0.9681      Z:     0.0000

  Electronic Dipole Moment: [e a0]
     X:    -0.0038      Y:     0.0041      Z:     0.0000

  Dipole Moment: [e a0]
     X:    -0.0162      Y:     0.9722      Z:     0.0000     Total:     0.9723

  Dipole Moment: [D]
     X:    -0.0412      Y:     2.4711      Z:     0.0000     Total:     2.4714


*** tstop() called on node16 at Sat Nov  5 10:19:16 2022
Module time:
	user time   =       5.00 seconds =       0.08 minutes
	system time =       0.20 seconds =       0.00 minutes
	total time  =          2 seconds =       0.03 minutes
Total time:
	user time   =       5.00 seconds =       0.08 minutes
	system time =       0.20 seconds =       0.00 minutes
	total time  =          2 seconds =       0.03 minutes
   => Loading Basis Set <=

    Name: (AUG-CC-PVTZ-DK AUX)
    Role: DECON
    Keyword: BASIS_RELATIVISTIC
    atoms 1, 3 entry H          line    45 file /home/qc/psi4conda/share/psi4/basis/aug-cc-pvtz-dk.gbs func decontract
    atoms 2    entry O          line   324 file /home/qc/psi4conda/share/psi4/basis/aug-cc-pvtz-dk.gbs func decontract

 MINTS: Wrapper to libmints.
   by Justin Turney

   Calculation information:
      Number of threads:                 4
      Number of atoms:                   3
      Number of AO shells:              32
      Number of SO shells:              32
      Number of primitives:             52
      Number of atomic orbitals:       105
      Number of basis functions:        92

      Number of irreps:                  2
      Integral cutoff                 1.00e-20
      Number of functions per irrep: [  62   30 ]

 OEINTS: Using relativistic (X2C) overlap, kinetic, and potential integrals.
         ------------------------------------------------------------
         Spin-Free X2C Integrals at the One-Electron Level (SFX2C-1e)
                 by Prakash Verma and Francesco A. Evangelista
         ------------------------------------------------------------

  ==> X2C Options <==

    Computational Basis: AUG-CC-PVTZ-DK
    X2C Basis: (AUG-CC-PVTZ-DK AUX)
    The X2C Hamiltonian will be computed in the X2C Basis

    Comparing only 62 out of 76 elements of H_Dirac

    Comparing only 30 out of 32 elements of H_Dirac

    The 1-norm of |H_X2C - H_Dirac| is: 6.690343820295

    WARNING: The X2C and Dirac Hamiltonians have substatially different eigenvalues!
             This is probably caused by the recontraction of the basis set.

 OEINTS: Overlap, kinetic, potential, dipole, and quadrupole integrals
         stored in file 35.

      Computing two-electron integrals...done
      Computed 4405735 non-zero two-electron integrals.
        Stored in file 33.


*** tstart() called on node16
*** at Sat Nov  5 10:19:17 2022


	Wfn Parameters:
	--------------------
	Wavefunction         = CC3
	Number of irreps     = 2
	Number of MOs        = 92
	Number of active MOs = 91
	AO-Basis             = NONE
	Semicanonical        = true
	Reference            = ROHF changed to UHF for semicanonical orbitals
	Print Level          = 1

	IRREP	# MOs	# FZDC	# DOCC	# SOCC	# VIRT	# FZVR
	-----	-----	------	------	------	------	------
	 Ap	   62	    1	    3	    0	    58	    0
	 App	   30	    0	    0	    1	    29	    0
	Transforming integrals...
	IWL integrals will be deleted.
	(OO|OO)...
	Presorting SO-basis two-electron integrals.
	Sorting File: SO Ints (nn|nn) nbuckets = 1
	Transforming the one-electron integrals and constructing Fock matrices
	Starting AA/AB first half-transformation.
	Sorting AA/AB half-transformed integrals.
	Starting BB first half-transformation.
	Sorting BB half-transformed integrals.
	First half integral transformation complete.
	Starting AA second half-transformation.
	Starting AB second half-transformation.
	Starting BB second half-transformation.
	Two-electron integral transformation complete.
	(OO|OV)...
	Starting AA second half-transformation.
	Starting AB second half-transformation.
	Starting BB second half-transformation.
	Two-electron integral transformation complete.
	(OO|VV)...
	Starting AA second half-transformation.
	Starting AB second half-transformation.
	Starting BB second half-transformation.
	Two-electron integral transformation complete.
	(OV|OO)...
	Starting AA/AB first half-transformation.
	Sorting AA/AB half-transformed integrals.
	Starting BB first half-transformation.
	Sorting BB half-transformed integrals.
	First half integral transformation complete.
	Starting AA second half-transformation.
	Starting AB second half-transformation.
	Starting BB second half-transformation.
	Two-electron integral transformation complete.
	(OV|OV)...
	Starting AA second half-transformation.
	Starting AB second half-transformation.
	Starting BB second half-transformation.
	Two-electron integral transformation complete.
	(OV|VV)...
	Starting AA second half-transformation.
	Starting AB second half-transformation.
	Starting BB second half-transformation.
	Two-electron integral transformation complete.
	(VV|OO)...
	Starting AA/AB first half-transformation.
	Sorting AA/AB half-transformed integrals.
	Starting BB first half-transformation.
	Sorting BB half-transformed integrals.
	First half integral transformation complete.
	Starting AA second half-transformation.
	Starting AB second half-transformation.
	Starting BB second half-transformation.
	Two-electron integral transformation complete.
	(VV|OV)...
	Starting AA second half-transformation.
	Starting AB second half-transformation.
	Starting BB second half-transformation.
	Two-electron integral transformation complete.
	(VV|VV)...
	Starting AA second half-transformation.
	Starting AB second half-transformation.
	Starting BB second half-transformation.
	Two-electron integral transformation complete.
	Frozen core energy     =    -61.26059874476000

	Size of irrep 0 of <AB|CD> integrals:      4.239 (MW) /     33.916 (MB)
	Size of irrep 1 of <AB|CD> integrals:      2.829 (MW) /     22.633 (MB)
	Total:                                     7.069 (MW) /     56.549 (MB)

	Size of irrep 0 of <ab|cd> integrals:      4.360 (MW) /     34.878 (MB)
	Size of irrep 1 of <ab|cd> integrals:      3.028 (MW) /     24.221 (MB)
	Total:                                     7.387 (MW) /     59.099 (MB)

	Size of irrep 0 of <Ab|Cd> integrals:     17.927 (MW) /    143.414 (MB)
	Size of irrep 1 of <Ab|Cd> integrals:     11.710 (MW) /     93.681 (MB)
	Total:                                    29.637 (MW) /    237.095 (MB)

	Size of irrep 0 of <IA|BC> integrals:      0.854 (MW) /      6.829 (MB)
	Size of irrep 1 of <IA|BC> integrals:      0.488 (MW) /      3.902 (MB)
	Total:                                     1.341 (MW) /     10.731 (MB)

	Size of irrep 0 of <ia|bc> integrals:      0.742 (MW) /      5.935 (MB)
	Size of irrep 1 of <ia|bc> integrals:      0.313 (MW) /      2.506 (MB)
	Total:                                     1.055 (MW) /      8.441 (MB)

	Size of irrep 0 of <Ia|Bc> integrals:      0.864 (MW) /      6.910 (MB)
	Size of irrep 1 of <Ia|Bc> integrals:      0.506 (MW) /      4.052 (MB)
	Total:                                     1.370 (MW) /     10.962 (MB)

	Size of irrep 0 of <iA|bC> integrals:      0.737 (MW) /      5.894 (MB)
	Size of irrep 1 of <iA|bC> integrals:      0.298 (MW) /      2.382 (MB)
	Total:                                     1.034 (MW) /      8.275 (MB)

	Size of irrep 0 of tIjAb amplitudes:       0.038 (MW) /      0.305 (MB)
	Size of irrep 1 of tIjAb amplitudes:       0.010 (MW) /      0.082 (MB)
	Total:                                     0.048 (MW) /      0.387 (MB)

	Nuclear Rep. energy          =      8.76164880258525
	SCF energy                   =    -75.70459673833562
	One-electron energy          =    -37.26685514277267
	Two-electron (AA) energy     =      3.69823781290931
	Two-electron (BB) energy     =      1.75149961879925
	Two-electron (AB) energy     =      8.61147091490338
	Two-electron energy          =     14.06120834661194
	Reference energy             =    -75.70459673833548

*** tstop() called on node16 at Sat Nov  5 10:19:23 2022
Module time:
	user time   =      15.34 seconds =       0.26 minutes
	system time =       2.47 seconds =       0.04 minutes
	total time  =          6 seconds =       0.10 minutes
Total time:
	user time   =      22.26 seconds =       0.37 minutes
	system time =       2.75 seconds =       0.05 minutes
	total time  =          9 seconds =       0.15 minutes

*** tstart() called on node16
*** at Sat Nov  5 10:19:23 2022

            **************************
            *                        *
            *        CCENERGY        *
            *                        *
            **************************

    Nuclear Rep. energy (wfn)     =    8.761648802585249
    SCF energy          (wfn)     =  -75.704596738335624
    Reference energy    (file100) =  -75.704596738335482

    Input parameters:
    -----------------
    Wave function   =     CC3
    Reference wfn   =     ROHF changed to UHF for Semicanonical Orbitals
    Brueckner       =     No
    Memory (Mbytes) =     31950.0
    Maxiter         =    500
    R_Convergence   =     1.0e-12
    E_Convergence   =     1.0e-06
    Restart         =     Yes
    DIIS            =     Yes
    AO Basis        =     NONE
    ABCD            =     NEW
    Cache Level     =     0
    Cache Type      =     LRU
    Print Level     =     1
    Num. of threads =     4
    # Amps to Print =     10
    Print MP2 Amps? =     No
    Analyze T2 Amps =     No
    Print Pair Ener =     No
    Local CC        =     No
    T3 Ws incore    =     No
    SCS-MP2         =     False
    SCSN-MP2        =     False
    SCS-CCSD        =     False

MP2 correlation energy -0.2073301082615158
                Solving CC Amplitude Equations
                ------------------------------
  Iter             Energy              RMS        T1Diag      D1Diag    New D1Diag    D2Diag
  ----     ---------------------    ---------   ----------  ----------  ----------   --------
     0        -0.207388519435310    0.000e+00    0.013505    0.000000    0.000000    0.000000
     1        -0.222349709172763    3.345e-02    0.016669    0.000000    0.000000    0.000000
     2        -0.227380259141790    1.220e-02    0.018413    0.000000    0.000000    0.000000
     3        -0.227681932189618    4.144e-03    0.018989    0.000000    0.000000    0.000000
     4        -0.227693043094979    1.803e-03    0.019060    0.000000    0.000000    0.000000
     5        -0.227729943339289    7.508e-04    0.019032    0.000000    0.000000    0.000000
     6        -0.227733527664620    2.492e-04    0.018997    0.000000    0.000000    0.000000
     7        -0.227735843654940    9.543e-05    0.018986    0.000000    0.000000    0.000000
     8        -0.227735682957937    3.325e-05    0.018984    0.000000    0.000000    0.000000
     9        -0.227735645056373    1.113e-05    0.018984    0.000000    0.000000    0.000000
    10        -0.227735768170488    4.126e-06    0.018985    0.000000    0.000000    0.000000
    11        -0.227735703020043    1.404e-06    0.018985    0.000000    0.000000    0.000000
    12        -0.227735685136939    4.238e-07    0.018985    0.000000    0.000000    0.000000
    13        -0.227735674286100    1.177e-07    0.018985    0.000000    0.000000    0.000000
    14        -0.227735673926211    3.579e-08    0.018985    0.000000    0.000000    0.000000
    15        -0.227735673893969    1.385e-08    0.018985    0.000000    0.000000    0.000000
    16        -0.227735673820315    6.300e-09    0.018985    0.000000    0.000000    0.000000
    17        -0.227735673715173    2.827e-09    0.018985    0.000000    0.000000    0.000000
    18        -0.227735673647560    1.168e-09    0.018985    0.000000    0.000000    0.000000
    19        -0.227735673637444    4.700e-10    0.018985    0.000000    0.000000    0.000000
    20        -0.227735673638513    1.649e-10    0.018985    0.000000    0.000000    0.000000
    21        -0.227735673637610    5.747e-11    0.018985    0.000000    0.000000    0.000000
    22        -0.227735673637655    2.062e-11    0.018985    0.000000    0.000000    0.000000
    23        -0.227735673637606    6.609e-12    0.018985    0.000000    0.000000    0.000000
    24        -0.227735673637636    2.383e-12    0.018985    0.000000    0.000000    0.000000
    25        -0.227735673637637    7.975e-13    0.018985    0.000000    0.000000    0.000000

    Iterations converged.


    Largest TIA Amplitudes:
              0  26         0.0096949457
              0   0        -0.0089499723
              0  12         0.0084730828
              0  28        -0.0081664076
              0  30         0.0079059212
              0   9        -0.0077708122
              0  13        -0.0076668815
              0   3        -0.0072790187
              3  58         0.0062553026
              2  30        -0.0060351808

    Largest Tia Amplitudes:
              2   2         0.0108356184
              1   4        -0.0106059082
              0   0         0.0099669548
              0   3         0.0096776685
              1   1        -0.0094610017
              1  10         0.0086557898
              2   0         0.0083443889
              0  30         0.0081965784
              0  13         0.0081343089
              2   7         0.0079717145

    Largest TIJAB Amplitudes:
      3   2  63  15        -0.0083752568
      3   1  63  10        -0.0079706653
      3   2  70  30         0.0078056174
      3   1  62  12         0.0074279202
      3   1  63   4         0.0070528521
      3   1  63   1         0.0069725974
      2   1  15  10        -0.0069701426
      3   2  64  15        -0.0067918997
      3   2  58  15         0.0066444853
      2   1  15   1         0.0065536532

    Largest Tijab Amplitudes:
      2   0  63  58         0.0080903805
      1   0  62  58         0.0077210107
      2   0  71  58         0.0074328300
      2   1  12   4         0.0071271151
      2   1  15  10        -0.0070276254
      2   1  12  10        -0.0067837804
      2   1  15   1         0.0063911010
      2   1  12  11         0.0063578418
      2   1  10   2         0.0061034073
      1   0  69  58        -0.0060378979

    Largest TIjAb Amplitudes:
      1   1  10  10         0.0191194680
      2   2  15  15         0.0178472746
      1   1   4  10        -0.0174191833
      1   1  10   4        -0.0173362777
      3   0   0  58        -0.0166564975
      1   1   4   4         0.0162552403
      3   0  12  58         0.0160395074
      1   1   1  10        -0.0154632796
      3   0  26  58         0.0154396356
      2   0  70  58         0.0149554126

    SCF energy       (wfn)                    =  -75.704596738335624
    Reference energy (file100)                =  -75.704596738335482

    Opposite-spin MP2 correlation energy      =   -0.158281662946965
    Same-spin MP2 correlation energy          =   -0.045442809881168
    MP2 correlation energy                    =   -0.207330108261516
      * MP2 total energy                      =  -75.911926846596998
    CC3 correlation energy                    =   -0.227735673637637
      * CC3 total energy                      =  -75.932332411973121


*** tstop() called on node16 at Sat Nov  5 10:23:20 2022
Module time:
	user time   =     879.37 seconds =      14.66 minutes
	system time =      63.05 seconds =       1.05 minutes
	total time  =        237 seconds =       3.95 minutes
Total time:
	user time   =     901.63 seconds =      15.03 minutes
	system time =      65.80 seconds =       1.10 minutes
	total time  =        246 seconds =       4.10 minutes

*** tstart() called on node16
*** at Sat Nov  5 10:23:20 2022


			**************************
			*                        *
			*         CCHBAR         *
			*                        *
			**************************

Dots of (HeT1)c in names "CC3 Wxxx" in CC3_HET1 
Wamef terms
	<WAMEF|WAMEF> =   13.2908492383
	<Wamef|Wamef> =   10.8474319445
	<WAmEf|WAmEf> =    9.3082493295
	<WaMeF|WaMeF> =   12.6480665273
Wmnie terms
	<WMNIE (M>N,IE)|WMNIE> =    0.7439885278
	<Wmnie (m>n,ie)|Wmnie> =    0.3276187232
	<WMnIe (Mn,Ie)|WMnIe> =    0.7249505075
	<WmNiE (mN,iE)|WmNiE> =    0.6130291143
	<WMNIE(M>N,EI)|WMNIE(M>N,EI)> =    0.7439885278
	<Wmnie(m>n,ei)|Wmnie(m>n,ei)> =    0.3276187232
	<WMnIe(Mn,eI)|WMnIe(Mn,eI)> =    0.7249505075
	<WmNiE(mN,Ei)|WmNiE(mN,Ei)> =    0.6130291143
Doing Wmnij terms.
	<WMNIJ (M>N,I>J)|WMNIJ> =    9.2153229955
	<Wmnij (m>n,i>j)|Wmnij> =    4.0392122436
	<WMnIj (Mn,Ij)|WMnIj> =    6.3801035709
Doing Wmbij terms.
	<WMBIJ (MB,I>J)|WMBIJ> =    0.7493773519
	<WMBIJ (I>J,MB)|WMBIJ> =    0.7493773519
	<Wmbij (mb,i>j)|Wmbij> =    0.3334644500
	<Wmbij (i>j,mb)|Wmbij> =    0.3334644500
	<WMbIj (Mb,Ij)|WMbIj> =    0.7284300074
	<WMbIj (Ij,Mb)|WMbIj> =    0.7284300074
	<WmBiJ (mB,iJ)|WmBiJ> =    0.6164132375
	<WmBiJ (iJ,mB)|WmBiJ> =    0.6164132375
Doing Wmbej terms.
	<WMBEJ (all ME,JB)|WMBEJ> =   81.7578086398
	<Wmbej|Wmbej> =   61.8762000167
	<WMbEj|WMbEj> =    1.0287961242
	<WmBeJ|WmBeJ> =    1.0383571246
	<WMbeJ|WMbeJ> =   94.7683761691
	<WmBEj|WmBEj> =   67.8550687188
Doing Wabei terms.
	<WABEI (IE,B>A) |WABEI> =   13.3450914844
	<Wabei (ie,b>a)|Wabei> =   10.9472248479
	<WAbEi (iE,bA)|WAbEi> =    9.3841300919
	<WAbEi (iE,Ba)|WAbEi> =   12.6835960014

*** tstop() called on node16 at Sat Nov  5 10:23:22 2022
Module time:
	user time   =       5.90 seconds =       0.10 minutes
	system time =       1.13 seconds =       0.02 minutes
	total time  =          2 seconds =       0.03 minutes
Total time:
	user time   =     907.53 seconds =      15.13 minutes
	system time =      66.93 seconds =       1.12 minutes
	total time  =        248 seconds =       4.13 minutes

*** tstart() called on node16
*** at Sat Nov  5 10:23:22 2022


	**********************************************************
	*  CCEOM: An Equation of Motion Coupled Cluster Program  *
	**********************************************************

	Nuclear Rep. energy (wfn)     =    8.761648802585249
	SCF energy          (wfn)     =  -75.704596738335624
	Reference energy    (file100) =  -75.704596738335482
	CC3 energy          (file100) =   -0.227735673637637

	Input parameters:
	-----------------
	Reference wfn   = ROHF changed to UHF for Semicanonical Orbitals
	Reference EOM wfn=     UHF
	Memory (Mbytes) =  31950.0
	ABCD            =     NEW
	Cache Level     =    0
	Cache Type      =     LRU
	T3 Ws incore  =      No
	Num. of threads =     4
	Local CC        =     No


	CCEOM parameters:
	-----------------
	States sought per irrep     = Ap 0, App 1,
	Max. number of iterations   =   500
	Vectors stored per root     =    12
	Print HbarSS iterations?    =     0
	Excitation range for HBarSS =     2
	Eigenvalue tolerance        = 1.0e-06
	Eigenvalue toleranceSS      = 1.0e-06
	Residual vector tolerance   = 1.0e-08
	Residual vector toleranceSS = 1.0e-06
	Complex tolerance           = 1.0e-12
	Root for properties         =     1
	Sym of state for properties =     Ap
	Guess vectors taken from    = SINGLES
	Restart EOM CC3             = NO
	Collapse with last vector   = YES


Symmetry of ground state: App
Symmetry of excited state: App
Symmetry of right eigenvector: Ap
Obtaining initial guess from singles-singles block of Hbar...Done.

Iter=1    L=1     Root    EOM Energy     Delta E   Res. Norm    Conv?
                     1   0.5758835187   5.76e-01    5.13e-01      N
Iter=2    L=2     Root    EOM Energy     Delta E   Res. Norm    Conv?
                     1   0.4847838992  -9.11e-02    9.72e-02      N
Iter=3    L=3     Root    EOM Energy     Delta E   Res. Norm    Conv?
                     1   0.4785473740  -6.24e-03    6.41e-02      N
Iter=4    L=4     Root    EOM Energy     Delta E   Res. Norm    Conv?
                     1   0.4752782000  -3.27e-03    4.67e-02      N
Iter=5    L=5     Root    EOM Energy     Delta E   Res. Norm    Conv?
                     1   0.4740401497  -1.24e-03    2.72e-02      N
Iter=6    L=6     Root    EOM Energy     Delta E   Res. Norm    Conv?
                     1   0.4736029519  -4.37e-04    1.36e-02      N
Iter=7    L=7     Root    EOM Energy     Delta E   Res. Norm    Conv?
                     1   0.4734639535  -1.39e-04    8.82e-03      N
Iter=8    L=8     Root    EOM Energy     Delta E   Res. Norm    Conv?
                     1   0.4733873233  -7.66e-05    6.33e-03      N
Iter=9    L=9     Root    EOM Energy     Delta E   Res. Norm    Conv?
                     1   0.4733507473  -3.66e-05    3.86e-03      N
Iter=10   L=10    Root    EOM Energy     Delta E   Res. Norm    Conv?
                     1   0.4733397179  -1.10e-05    2.92e-03      N
Iter=11   L=11    Root    EOM Energy     Delta E   Res. Norm    Conv?
                     1   0.4733302029  -9.51e-06    2.36e-03      N
Iter=12   L=12    Root    EOM Energy     Delta E   Res. Norm    Conv?
                     1   0.4733267933  -3.41e-06    1.37e-03      N
Iter=13   L=2     Root    EOM Energy     Delta E   Res. Norm    Conv?
                     1   0.4733267933   9.44e-16    1.37e-03      N
Iter=14   L=3     Root    EOM Energy     Delta E   Res. Norm    Conv?
                     1   0.4733259851  -8.08e-07    6.74e-04      N
Iter=15   L=4     Root    EOM Energy     Delta E   Res. Norm    Conv?
                     1   0.4733262355   2.50e-07    4.05e-04      N
Iter=16   L=5     Root    EOM Energy     Delta E   Res. Norm    Conv?
                     1   0.4733254963  -7.39e-07    2.35e-04      N
Iter=17   L=6     Root    EOM Energy     Delta E   Res. Norm    Conv?
                     1   0.4733250583  -4.38e-07    1.06e-04      N
Iter=18   L=7     Root    EOM Energy     Delta E   Res. Norm    Conv?
                     1   0.4733251619   1.04e-07    4.82e-05      N
Iter=19   L=8     Root    EOM Energy     Delta E   Res. Norm    Conv?
                     1   0.4733250868  -7.52e-08    3.13e-05      N
Iter=20   L=9     Root    EOM Energy     Delta E   Res. Norm    Conv?
                     1   0.4733250727  -1.41e-08    2.76e-05      N
Iter=21   L=10    Root    EOM Energy     Delta E   Res. Norm    Conv?
                     1   0.4733250669  -5.76e-09    1.84e-05      N
Iter=22   L=11    Root    EOM Energy     Delta E   Res. Norm    Conv?
                     1   0.4733250857   1.88e-08    1.08e-05      N
Iter=23   L=12    Root    EOM Energy     Delta E   Res. Norm    Conv?
                     1   0.4733251006   1.49e-08    5.29e-06      N
Iter=24   L=2     Root    EOM Energy     Delta E   Res. Norm    Conv?
                     1   0.4733251006   1.28e-14    5.29e-06      N
Iter=25   L=3     Root    EOM Energy     Delta E   Res. Norm    Conv?
                     1   0.4733250865  -1.42e-08    2.39e-06      N
Iter=26   L=4     Root    EOM Energy     Delta E   Res. Norm    Conv?
                     1   0.4733250829  -3.55e-09    1.42e-06      N
Iter=27   L=5     Root    EOM Energy     Delta E   Res. Norm    Conv?
                     1   0.4733250840   1.14e-09    9.68e-07      N
Iter=28   L=6     Root    EOM Energy     Delta E   Res. Norm    Conv?
                     1   0.4733250847   6.81e-10    4.88e-07      N
Iter=29   L=7     Root    EOM Energy     Delta E   Res. Norm    Conv?
                     1   0.4733250849   1.89e-10    2.10e-07      N
Iter=30   L=8     Root    EOM Energy     Delta E   Res. Norm    Conv?
                     1   0.4733250848  -1.37e-10    9.50e-08      N
Iter=31   L=9     Root    EOM Energy     Delta E   Res. Norm    Conv?
                     1   0.4733250847  -6.03e-11    4.98e-08      N
Iter=32   L=10    Root    EOM Energy     Delta E   Res. Norm    Conv?
                     1   0.4733250847  -4.26e-11    3.43e-08      N
Iter=33   L=11    Root    EOM Energy     Delta E   Res. Norm    Conv?
                     1   0.4733250846  -6.36e-11    2.32e-08      N
Iter=34   L=12    Root    EOM Energy     Delta E   Res. Norm    Conv?
                     1   0.4733250846   5.03e-12    1.61e-08      N
Iter=35   L=2     Root    EOM Energy     Delta E   Res. Norm    Conv?
                     1   0.4733250846  -7.00e-13    1.35e-08      N
Iter=36   L=3     Root    EOM Energy     Delta E   Res. Norm    Conv?
                     1   0.4733250846  -2.14e-11    1.08e-08      N
Iter=37   L=4     Root    EOM Energy     Delta E   Res. Norm    Conv?
                     1   0.4733250846  -9.09e-12    6.36e-09      Y
Completed EOM_CCSD
Collapsing to only 1 vector(s).
Copying root 1 to CC3_MISC file.
Setting initial CC3 eigenvalue to    0.4733250846
Iter=1    L=1     Root    EOM Energy     Delta E   Res. Norm    Conv?
                     1   0.4680070266  -5.32e-03    4.35e-02      N
Iter=2    L=2     Root    EOM Energy     Delta E   Res. Norm    Conv?
                     1   0.4664574296  -1.55e-03    2.70e-02      N
Iter=3    L=3     Root    EOM Energy     Delta E   Res. Norm    Conv?
                     1   0.4650074415  -1.45e-03    4.26e-02      N
Iter=4    L=4     Root    EOM Energy     Delta E   Res. Norm    Conv?
                     1   0.4631920269  -1.82e-03    2.51e-02      N
Iter=5    L=5     Root    EOM Energy     Delta E   Res. Norm    Conv?
                     1   0.4627976990  -3.94e-04    1.30e-02      N
Iter=6    L=6     Root    EOM Energy     Delta E   Res. Norm    Conv?
                     1   0.4626685792  -1.29e-04    1.23e-02      N
Iter=7    L=7     Root    EOM Energy     Delta E   Res. Norm    Conv?
                     1   0.4625229144  -1.46e-04    9.30e-03      N
Iter=8    L=8     Root    EOM Energy     Delta E   Res. Norm    Conv?
                     1   0.4624411823  -8.17e-05    5.28e-03      N
Iter=9    L=9     Root    EOM Energy     Delta E   Res. Norm    Conv?
                     1   0.4624356594  -5.52e-06    2.36e-03      N
Iter=10   L=10    Root    EOM Energy     Delta E   Res. Norm    Conv?
                     1   0.4624346561  -1.00e-06    1.18e-03      N
Collapsing to 2 vector(s).
Change in CC3 energy from last iterated value   -0.0108904284
Iter=11   L=2     Root    EOM Energy     Delta E   Res. Norm    Conv?
                     1   0.4624623631   2.77e-05    1.18e-03      N
Iter=12   L=3     Root    EOM Energy     Delta E   Res. Norm    Conv?
                     1   0.4624602414  -2.12e-06    7.71e-04      N
Iter=13   L=4     Root    EOM Energy     Delta E   Res. Norm    Conv?
                     1   0.4624600112  -2.30e-07    4.86e-04      N
Iter=14   L=5     Root    EOM Energy     Delta E   Res. Norm    Conv?
                     1   0.4624604084   3.97e-07    2.27e-04      N
Iter=15   L=6     Root    EOM Energy     Delta E   Res. Norm    Conv?
                     1   0.4624597724  -6.36e-07    1.20e-04      N
Iter=16   L=7     Root    EOM Energy     Delta E   Res. Norm    Conv?
                     1   0.4624597537  -1.87e-08    7.50e-05      N
Iter=17   L=8     Root    EOM Energy     Delta E   Res. Norm    Conv?
                     1   0.4624600600   3.06e-07    5.46e-05      N
Iter=18   L=9     Root    EOM Energy     Delta E   Res. Norm    Conv?
                     1   0.4624601232   6.32e-08    4.61e-05      N
Iter=19   L=10    Root    EOM Energy     Delta E   Res. Norm    Conv?
                     1   0.4624600976  -2.56e-08    3.32e-05      N
Collapsing to 2 vector(s).
Change in CC3 energy from last iterated value    0.0000254415
Iter=20   L=2     Root    EOM Energy     Delta E   Res. Norm    Conv?
                     1   0.4624600017  -9.59e-08    3.28e-05      N
Iter=21   L=3     Root    EOM Energy     Delta E   Res. Norm    Conv?
                     1   0.4624600334   3.17e-08    1.82e-05      N
Iter=22   L=4     Root    EOM Energy     Delta E   Res. Norm    Conv?
                     1   0.4624600519   1.85e-08    1.00e-05      N
Iter=23   L=5     Root    EOM Energy     Delta E   Res. Norm    Conv?
                     1   0.4624600632   1.13e-08    4.79e-06      N
Iter=24   L=6     Root    EOM Energy     Delta E   Res. Norm    Conv?
                     1   0.4624600651   1.91e-09    2.23e-06      N
Iter=25   L=7     Root    EOM Energy     Delta E   Res. Norm    Conv?
                     1   0.4624600646  -5.31e-10    1.32e-06      N
Iter=26   L=8     Root    EOM Energy     Delta E   Res. Norm    Conv?
                     1   0.4624600629  -1.71e-09    7.92e-07      N
Iter=27   L=9     Root    EOM Energy     Delta E   Res. Norm    Conv?
                     1   0.4624600632   2.99e-10    4.90e-07      N
Iter=28   L=10    Root    EOM Energy     Delta E   Res. Norm    Conv?
                     1   0.4624600635   3.46e-10    3.06e-07      N
Collapsing to 2 vector(s).
Change in CC3 energy from last iterated value   -0.0000000341
Iter=29   L=2     Root    EOM Energy     Delta E   Res. Norm    Conv?
                     1   0.4624600636   1.28e-10    3.06e-07      N
Iter=30   L=3     Root    EOM Energy     Delta E   Res. Norm    Conv?
                     1   0.4624600636  -1.15e-11    1.51e-07      N
Iter=31   L=4     Root    EOM Energy     Delta E   Res. Norm    Conv?
                     1   0.4624600637   4.25e-11    7.56e-08      N
Iter=32   L=5     Root    EOM Energy     Delta E   Res. Norm    Conv?
                     1   0.4624600637   3.08e-11    4.44e-08      N
Iter=33   L=6     Root    EOM Energy     Delta E   Res. Norm    Conv?
                     1   0.4624600637   5.57e-12    3.86e-08      N
Iter=34   L=7     Root    EOM Energy     Delta E   Res. Norm    Conv?
                     1   0.4624600637   1.20e-11    3.16e-08      N
Iter=35   L=8     Root    EOM Energy     Delta E   Res. Norm    Conv?
                     1   0.4624600637  -1.15e-11    1.77e-08      N
Iter=36   L=9     Root    EOM Energy     Delta E   Res. Norm    Conv?
                     1   0.4624600637  -2.56e-12    9.19e-09      Y
Collapsing to only 1 vector(s).
Change in CC3 energy from last iterated value    0.0000000002

Procedure converged for 1 root(s).
Energy written to CC_INFO:Etot  -75.4698723483
States per irrep written to CC_INFO.
<R|R> =   1.0000000000000002
EOM CC3 R0 for root 0 =   0.00409977440

Final Energetic Summary for Converged Roots of Irrep App
                     Excitation Energy              Total Energy
                (eV)     (cm^-1)     (au)             (au)
EOM State 1     12.584   101498.2   0.4624600637   -75.469872348274

Largest components of excited wave function #1:
 RIA (libdpd indices) : (cscf notation)
         2 >   0      :       4ap >    5ap :    0.4935789775
         2 >   3      :       4ap >    8ap :    0.1714119308
         2 >   9      :       4ap >   14ap :    0.1362007087
         2 >   2      :       4ap >    7ap :    0.1292478329
         2 >   7      :       4ap >   12ap :    0.0513724911
 Ria (libdpd indices) : (cscf notation)
         2 >   0      :       4ap >    5ap :   -0.5824985499
         2 >   3      :       4ap >    8ap :   -0.2309521493
         2 >   9      :       4ap >   14ap :   -0.1706503763
         2 >   2      :       4ap >    7ap :   -0.1412028814
         2 >   7      :       4ap >   12ap :   -0.0587443282
 RIjAb (libdpd indices)     : (cscf notation)
        0   2 >   0   0     :   1app    4ap >    5ap   1app :   -0.3346604035
        0   2 >   3   0     :   1app    4ap >    8ap   1app :   -0.1163762096
        0   2 >   0   1     :   1app    4ap >    5ap   2app :   -0.0959713684
        0   2 >   9   0     :   1app    4ap >   14ap   1app :   -0.0928640183
        0   2 >   2   0     :   1app    4ap >    7ap   1app :   -0.0854661066
 RIJAB (libdpd indices)     : (cscf notation)
        0   2 >   5   0     :   1app    4ap >   7app    5ap :    0.0198189205
        0   2 >   0   0     :   1app    4ap >   2app    5ap :   -0.0193710217
        2   1 >  10   0     :    4ap    3ap >   15ap    5ap :   -0.0188733218
        2   1 >   4   0     :    4ap    3ap >    9ap    5ap :    0.0182213067
        2   1 >   1   0     :    4ap    3ap >    6ap    5ap :    0.0170660973
 Rijab (libdpd indices)     : (cscf notation)
        2   1 >  10   0     :    4ap    3ap >   15ap    5ap :   -0.0237367903
        2   1 >   4   0     :    4ap    3ap >    9ap    5ap :    0.0231983189
        2   1 >   1   0     :    4ap    3ap >    6ap    5ap :    0.0205527778
        2   1 >  20   0     :    4ap    3ap >   25ap    5ap :   -0.0132758582
        2   0 >   9   0     :    4ap    2ap >   14ap    5ap :   -0.0095055640

	Putting into environment energy for root of R irrep 1 and root 1.
	Putting into environment CURRENT ENERGY:              -75.4698723483

	Total # of sigma evaluations: 73

*** tstop() called on node16 at Sat Nov  5 10:36:19 2022
Module time:
	user time   =    2930.27 seconds =      48.84 minutes
	system time =     177.85 seconds =       2.96 minutes
	total time  =        777 seconds =      12.95 minutes
Total time:
	user time   =    3837.80 seconds =      63.96 minutes
	system time =     244.78 seconds =       4.08 minutes
	total time  =       1025 seconds =      17.08 minutes

    Psi4 stopped on: Saturday, 05 November 2022 10:36AM
    Psi4 wall time for execution: 0:17:04.46

*** Psi4 exiting successfully. Buy a developer a beer!
