
    -----------------------------------------------------------------------
          Psi4: An Open-Source Ab Initio Electronic Structure Package
                               Psi4 1.2 release

                         Git: Rev {HEAD} 9d4a61c 


    R. M. Parrish, L. A. Burns, D. G. A. Smith, A. C. Simmonett,
    A. E. DePrince III, E. G. Hohenstein, U. Bozkaya, A. Yu. Sokolov,
    R. Di Remigio, R. M. Richard, J. F. Gonthier, A. M. James,
    H. R. McAlexander, A. Kumar, M. Saitow, X. Wang, B. P. Pritchard,
    P. Verma, H. F. Schaefer III, K. Patkowski, R. A. King, E. F. Valeev,
    F. A. Evangelista, J. M. Turney, T. D. Crawford, and C. D. Sherrill,
    J. Chem. Theory Comput. 13(7) pp 3185--3197 (2017).
    (doi: 10.1021/acs.jctc.7b00174)


                         Additional Contributions by
    P. Kraus, H. Kruse, M. H. Lechner, M. C. Schieber, and R. A. Shaw

    -----------------------------------------------------------------------


    Psi4 started on: Saturday, 05 November 2022 10:19AM

    Process ID: 44581
    Host:       node18
    PSIDATADIR: /home/qc/psi4conda/share/psi4
    Memory:     500.0 MiB
    Threads:    4
    
  ==> Input File <==

--------------------------------------------------------------------------
#h2o SPECIAL eom-cc3
memory 31950 mb

molecule h2o{
1 2
H        0.0000000000       -1.5433448831       -0.9633116380
O        0.0000000000       -0.0093330892        0.1169625279
H        0.0000000000        1.5526779723       -0.9699150799

units bohr
}
 
set globals {
 reference rohf
 basis aug-cc-pvtz-dk
 freeze_core true
 cachelevel=0
 relativistic x2c
 maxiter=500
 dertype none
 ints_tolerance 20
 roots_per_irrep = [0,1]
}

set scf d_convergence 12
set ccenergy r_convergence 12
set cceom r_convergence 8

energy('eom-cc3')--------------------------------------------------------------------------

  Memory set to  29.756 GiB by Python driver.

*** tstart() called on node18
*** at Sat Nov  5 10:19:20 2022

   => Loading Basis Set <=

    Name: AUG-CC-PVTZ-DK
    Role: ORBITAL
    Keyword: BASIS
    atoms 1, 3 entry H          line    45 file /home/qc/psi4conda/share/psi4/basis/aug-cc-pvtz-dk.gbs 
    atoms 2    entry O          line   324 file /home/qc/psi4conda/share/psi4/basis/aug-cc-pvtz-dk.gbs 


         ---------------------------------------------------------
                                   SCF
            by Justin Turney, Rob Parrish, Andy Simmonett
                             and Daniel Smith
                             ROHF Reference
                        4 Threads,  30469 MiB Core
         ---------------------------------------------------------

  ==> Geometry <==

    Molecular point group: cs
    Full point group: Cs

    Geometry (in Bohr), charge = 1, multiplicity = 2:

       Center              X                  Y                   Z               Mass       
    ------------   -----------------  -----------------  -----------------  -----------------
         H            1.535578561143     0.959005907842     0.000000000000     1.007825032070
         O            0.001566767243    -0.121268258058     0.000000000000    15.994914619560
         H           -1.560444294257     0.965609349742     0.000000000000     1.007825032070

  Running in cs symmetry.

  Rotational constants: A =     28.64887  B =     12.46100  C =      8.68389 [cm^-1]
  Rotational constants: A = 858871.57784  B = 373571.48033  C = 260336.51179 [MHz]
  Nuclear repulsion =    8.790917560162475

  Charge       = 1
  Multiplicity = 2
  Electrons    = 9
  Nalpha       = 5
  Nbeta        = 4

  ==> Algorithm <==

  SCF Algorithm Type is PK.
  DIIS enabled.
  MOM disabled.
  Fractional occupation disabled.
  Guess Type is GWH.
  Energy threshold   = 1.00e-08
  Density threshold  = 1.00e-12
  Integral threshold = 1.00e-20

  ==> Primary Basis <==

  Basis Set: AUG-CC-PVTZ-DK
    Blend: AUG-CC-PVTZ-DK
    Number of shells: 32
    Number of basis function: 92
    Number of Cartesian functions: 105
    Spherical Harmonics?: true
    Max angular momentum: 3

   => Loading Basis Set <=

    Name: (AUG-CC-PVTZ-DK AUX)
    Role: DECON
    Keyword: BASIS_RELATIVISTIC
    atoms 1, 3 entry H          line    45 file /home/qc/psi4conda/share/psi4/basis/aug-cc-pvtz-dk.gbs func decontract
    atoms 2    entry O          line   324 file /home/qc/psi4conda/share/psi4/basis/aug-cc-pvtz-dk.gbs func decontract

  ==> Pre-Iterations <==

   -------------------------------------------------------
    Irrep   Nso     Nmo     Nalpha   Nbeta   Ndocc  Nsocc
   -------------------------------------------------------
     A'        62      62       0       0       0       0
     A"        30      30       0       0       0       0
   -------------------------------------------------------
    Total      92      92       5       4       4       1
   -------------------------------------------------------

 OEINTS: Using relativistic (X2C) overlap, kinetic, and potential integrals.
         ------------------------------------------------------------
         Spin-Free X2C Integrals at the One-Electron Level (SFX2C-1e)
                 by Prakash Verma and Francesco A. Evangelista
         ------------------------------------------------------------

  ==> X2C Options <==

    Computational Basis: AUG-CC-PVTZ-DK
    X2C Basis: (AUG-CC-PVTZ-DK AUX)
    The X2C Hamiltonian will be computed in the X2C Basis

    Comparing only 62 out of 76 elements of H_Dirac

    Comparing only 30 out of 32 elements of H_Dirac

    The 1-norm of |H_X2C - H_Dirac| is: 6.764119321449

    WARNING: The X2C and Dirac Hamiltonians have substatially different eigenvalues!
             This is probably caused by the recontraction of the basis set.

  ==> Integral Setup <==

  Using in-core PK algorithm.
   Calculation information:
      Number of atoms:                   3
      Number of AO shells:              32
      Number of primitives:             52
      Number of atomic orbitals:       105
      Number of basis functions:        92

      Integral cutoff                 1.00e-20
      Number of threads:                 4

  Performing in-core PK
  Using 18305562 doubles for integral storage.
  We computed 171364 shell quartets total.
  Whereas there are 139656 unique shell quartets.
    22.70 percent of shell quartets recomputed by reordering.

  ==> DiskJK: Disk-Based J/K Matrices <==

    J tasked:                  Yes
    K tasked:                  Yes
    wK tasked:                  No
    Memory (MB):             22852
    Schwarz Cutoff:          1E-20

    OpenMP threads:              4

  Minimum eigenvalue in the overlap matrix is 4.0703426910E-04.
  Using Symmetric Orthogonalization.

  SCF Guess: Generalized Wolfsberg-Helmholtz.

  ==> Iterations <==

                        Total Energy        Delta E     RMS |[F,P]|

    Occupation by irrep:
             Ap   App 
    DOCC [     4,    0 ]
    SOCC [     1,    0 ]

   @ROHF iter   1:   -70.09344470518722   -7.00934e+01   1.07795e-01 
    Occupation by irrep:
             Ap   App 
    DOCC [     4,    0 ]
    SOCC [     0,    1 ]

   @ROHF iter   2:   -72.14866568541180   -2.05522e+00   4.71346e-02 DIIS
   @ROHF iter   3:   -75.08034664371266   -2.93168e+00   3.07751e-02 DIIS
   @ROHF iter   4:   -75.66400243002964   -5.83656e-01   6.89105e-03 DIIS
   @ROHF iter   5:   -75.70466070603412   -4.06583e-02   3.60845e-04 DIIS
   @ROHF iter   6:   -75.70487900219413   -2.18296e-04   8.42809e-05 DIIS
   @ROHF iter   7:   -75.70489034907301   -1.13469e-05   1.64224e-05 DIIS
   @ROHF iter   8:   -75.70489076850507   -4.19432e-07   2.14878e-06 DIIS
   @ROHF iter   9:   -75.70489077797556   -9.47050e-09   6.77917e-07 DIIS
   @ROHF iter  10:   -75.70489077876354   -7.87978e-10   1.65324e-07 DIIS
   @ROHF iter  11:   -75.70489077881277   -4.92264e-11   2.99335e-08 DIIS
   @ROHF iter  12:   -75.70489077881459   -1.81899e-12   9.32383e-09 DIIS
   @ROHF iter  13:   -75.70489077881480   -2.13163e-13   1.48090e-09 DIIS
   @ROHF iter  14:   -75.70489077881483   -2.84217e-14   1.45190e-10 DIIS
   @ROHF iter  15:   -75.70489077881486   -2.84217e-14   2.32627e-11 DIIS
   @ROHF iter  16:   -75.70489077881489   -2.84217e-14   4.17768e-12 DIIS
   @ROHF iter  17:   -75.70489077881487    1.42109e-14   8.98815e-13 DIIS

  ==> Post-Iterations <==

    Orbital Energies [Eh]
    ---------------------

    Doubly Occupied:                                                      

       1Ap   -21.117746     2Ap    -1.800523     3Ap    -1.176221  
       4Ap    -1.046923  

    Singly Occupied:                                                      

       1App   -0.685929  

    Virtual:                                                              

       5Ap    -0.181175     6Ap    -0.116677     7Ap    -0.060808  
       2App   -0.057655     8Ap    -0.042514     9Ap    -0.026984  
      10Ap     0.010511    11Ap     0.017779     3App    0.036325  
       4App    0.070466    12Ap     0.072978    13Ap     0.162665  
      14Ap     0.177700    15Ap     0.195274    16Ap     0.323376  
      17Ap     0.346957    18Ap     0.409174     5App    0.422339  
       6App    0.422728    19Ap     0.515924     7App    0.554511  
      20Ap     0.583362    21Ap     0.596844     8App    0.608096  
       9App    0.622981    22Ap     0.661243    23Ap     0.669118  
      24Ap     0.728109    25Ap     0.742991    10App    0.748763  
      26Ap     0.828855    27Ap     0.859728    11App    0.870513  
      28Ap     0.964920    12App    1.165319    13App    1.225538  
      29Ap     1.248808    30Ap     1.404305    31Ap     1.441727  
      32Ap     1.582324    33Ap     1.683312    14App    1.831411  
      15App    1.898999    34Ap     1.943387    35Ap     1.978471  
      16App    2.001650    36Ap     2.050294    37Ap     2.095369  
      17App    2.307893    38Ap     2.312656    39Ap     2.324718  
      18App    2.450449    40Ap     2.494815    41Ap     3.158956  
      42Ap     3.308717    19App    3.574284    20App    3.584856  
      43Ap     3.766970    44Ap     3.781113    21App    3.900874  
      22App    3.966030    23App    3.970582    45Ap     4.043918  
      46Ap     4.085588    47Ap     4.197617    48Ap     4.268376  
      49Ap     4.603241    24App    4.635233    50Ap     4.734697  
      51Ap     4.840335    25App    4.916930    52Ap     5.228608  
      53Ap     5.593911    54Ap     6.069105    26App    6.202113  
      55Ap     6.287147    27App    6.601581    28App    6.700695  
      29App    6.715227    56Ap     6.768209    57Ap     6.850429  
      30App    6.852578    58Ap     6.971208    59Ap     7.299089  
      60Ap     7.411440    61Ap     8.074709    62Ap    14.125595  

    Final Occupation by Irrep:
             Ap   App 
    DOCC [     4,    0 ]
    SOCC [     0,    1 ]

  Energy converged.

  @ROHF Final Energy:   -75.70489077881487

   => Energetics <=

    Nuclear Repulsion Energy =              8.7909175601624749
    One-Electron Energy =                -117.6010564914100769
    Two-Electron Energy =                  33.1052481524327362
    Total Energy =                        -75.7048907788148711



Properties will be evaluated at   0.000000,   0.000000,   0.000000 [a0]

Properties computed using the SCF density matrix

  Nuclear Dipole Moment: [e a0]
     X:    -0.0123      Y:     0.9545      Z:     0.0000

  Electronic Dipole Moment: [e a0]
     X:    -0.0039      Y:     0.0057      Z:     0.0000

  Dipole Moment: [e a0]
     X:    -0.0162      Y:     0.9602      Z:     0.0000     Total:     0.9603

  Dipole Moment: [D]
     X:    -0.0412      Y:     2.4405      Z:     0.0000     Total:     2.4409


*** tstop() called on node18 at Sat Nov  5 10:19:22 2022
Module time:
	user time   =       4.83 seconds =       0.08 minutes
	system time =       0.14 seconds =       0.00 minutes
	total time  =          2 seconds =       0.03 minutes
Total time:
	user time   =       4.83 seconds =       0.08 minutes
	system time =       0.14 seconds =       0.00 minutes
	total time  =          2 seconds =       0.03 minutes
   => Loading Basis Set <=

    Name: (AUG-CC-PVTZ-DK AUX)
    Role: DECON
    Keyword: BASIS_RELATIVISTIC
    atoms 1, 3 entry H          line    45 file /home/qc/psi4conda/share/psi4/basis/aug-cc-pvtz-dk.gbs func decontract
    atoms 2    entry O          line   324 file /home/qc/psi4conda/share/psi4/basis/aug-cc-pvtz-dk.gbs func decontract

 MINTS: Wrapper to libmints.
   by Justin Turney

   Calculation information:
      Number of threads:                 4
      Number of atoms:                   3
      Number of AO shells:              32
      Number of SO shells:              32
      Number of primitives:             52
      Number of atomic orbitals:       105
      Number of basis functions:        92

      Number of irreps:                  2
      Integral cutoff                 1.00e-20
      Number of functions per irrep: [  62   30 ]

 OEINTS: Using relativistic (X2C) overlap, kinetic, and potential integrals.
         ------------------------------------------------------------
         Spin-Free X2C Integrals at the One-Electron Level (SFX2C-1e)
                 by Prakash Verma and Francesco A. Evangelista
         ------------------------------------------------------------

  ==> X2C Options <==

    Computational Basis: AUG-CC-PVTZ-DK
    X2C Basis: (AUG-CC-PVTZ-DK AUX)
    The X2C Hamiltonian will be computed in the X2C Basis

    Comparing only 62 out of 76 elements of H_Dirac

    Comparing only 30 out of 32 elements of H_Dirac

    The 1-norm of |H_X2C - H_Dirac| is: 6.764119321602

    WARNING: The X2C and Dirac Hamiltonians have substatially different eigenvalues!
             This is probably caused by the recontraction of the basis set.

 OEINTS: Overlap, kinetic, potential, dipole, and quadrupole integrals
         stored in file 35.

      Computing two-electron integrals...done
      Computed 4405735 non-zero two-electron integrals.
        Stored in file 33.


*** tstart() called on node18
*** at Sat Nov  5 10:19:23 2022


	Wfn Parameters:
	--------------------
	Wavefunction         = CC3
	Number of irreps     = 2
	Number of MOs        = 92
	Number of active MOs = 91
	AO-Basis             = NONE
	Semicanonical        = true
	Reference            = ROHF changed to UHF for semicanonical orbitals
	Print Level          = 1

	IRREP	# MOs	# FZDC	# DOCC	# SOCC	# VIRT	# FZVR
	-----	-----	------	------	------	------	------
	 Ap	   62	    1	    3	    0	    58	    0
	 App	   30	    0	    0	    1	    29	    0
	Transforming integrals...
	IWL integrals will be deleted.
	(OO|OO)...
	Presorting SO-basis two-electron integrals.
	Sorting File: SO Ints (nn|nn) nbuckets = 1
	Transforming the one-electron integrals and constructing Fock matrices
	Starting AA/AB first half-transformation.
	Sorting AA/AB half-transformed integrals.
	Starting BB first half-transformation.
	Sorting BB half-transformed integrals.
	First half integral transformation complete.
	Starting AA second half-transformation.
	Starting AB second half-transformation.
	Starting BB second half-transformation.
	Two-electron integral transformation complete.
	(OO|OV)...
	Starting AA second half-transformation.
	Starting AB second half-transformation.
	Starting BB second half-transformation.
	Two-electron integral transformation complete.
	(OO|VV)...
	Starting AA second half-transformation.
	Starting AB second half-transformation.
	Starting BB second half-transformation.
	Two-electron integral transformation complete.
	(OV|OO)...
	Starting AA/AB first half-transformation.
	Sorting AA/AB half-transformed integrals.
	Starting BB first half-transformation.
	Sorting BB half-transformed integrals.
	First half integral transformation complete.
	Starting AA second half-transformation.
	Starting AB second half-transformation.
	Starting BB second half-transformation.
	Two-electron integral transformation complete.
	(OV|OV)...
	Starting AA second half-transformation.
	Starting AB second half-transformation.
	Starting BB second half-transformation.
	Two-electron integral transformation complete.
	(OV|VV)...
	Starting AA second half-transformation.
	Starting AB second half-transformation.
	Starting BB second half-transformation.
	Two-electron integral transformation complete.
	(VV|OO)...
	Starting AA/AB first half-transformation.
	Sorting AA/AB half-transformed integrals.
	Starting BB first half-transformation.
	Sorting BB half-transformed integrals.
	First half integral transformation complete.
	Starting AA second half-transformation.
	Starting AB second half-transformation.
	Starting BB second half-transformation.
	Two-electron integral transformation complete.
	(VV|OV)...
	Starting AA second half-transformation.
	Starting AB second half-transformation.
	Starting BB second half-transformation.
	Two-electron integral transformation complete.
	(VV|VV)...
	Starting AA second half-transformation.
	Starting AB second half-transformation.
	Starting BB second half-transformation.
	Two-electron integral transformation complete.
	Frozen core energy     =    -61.26804781247651

	Size of irrep 0 of <AB|CD> integrals:      4.239 (MW) /     33.916 (MB)
	Size of irrep 1 of <AB|CD> integrals:      2.829 (MW) /     22.633 (MB)
	Total:                                     7.069 (MW) /     56.549 (MB)

	Size of irrep 0 of <ab|cd> integrals:      4.360 (MW) /     34.878 (MB)
	Size of irrep 1 of <ab|cd> integrals:      3.028 (MW) /     24.221 (MB)
	Total:                                     7.387 (MW) /     59.099 (MB)

	Size of irrep 0 of <Ab|Cd> integrals:     17.927 (MW) /    143.414 (MB)
	Size of irrep 1 of <Ab|Cd> integrals:     11.710 (MW) /     93.681 (MB)
	Total:                                    29.637 (MW) /    237.095 (MB)

	Size of irrep 0 of <IA|BC> integrals:      0.854 (MW) /      6.829 (MB)
	Size of irrep 1 of <IA|BC> integrals:      0.488 (MW) /      3.902 (MB)
	Total:                                     1.341 (MW) /     10.731 (MB)

	Size of irrep 0 of <ia|bc> integrals:      0.742 (MW) /      5.935 (MB)
	Size of irrep 1 of <ia|bc> integrals:      0.313 (MW) /      2.506 (MB)
	Total:                                     1.055 (MW) /      8.441 (MB)

	Size of irrep 0 of <Ia|Bc> integrals:      0.864 (MW) /      6.910 (MB)
	Size of irrep 1 of <Ia|Bc> integrals:      0.506 (MW) /      4.052 (MB)
	Total:                                     1.370 (MW) /     10.962 (MB)

	Size of irrep 0 of <iA|bC> integrals:      0.737 (MW) /      5.894 (MB)
	Size of irrep 1 of <iA|bC> integrals:      0.298 (MW) /      2.382 (MB)
	Total:                                     1.034 (MW) /      8.275 (MB)

	Size of irrep 0 of tIjAb amplitudes:       0.038 (MW) /      0.305 (MB)
	Size of irrep 1 of tIjAb amplitudes:       0.010 (MW) /      0.082 (MB)
	Total:                                     0.048 (MW) /      0.387 (MB)

	Nuclear Rep. energy          =      8.79091756016247
	SCF energy                   =    -75.70489077881487
	One-electron energy          =    -37.30048845461379
	Two-electron (AA) energy     =      3.70086032538551
	Two-electron (BB) energy     =      1.75303804221356
	Two-electron (AB) energy     =      8.61882956051370
	Two-electron energy          =     14.07272792811277
	Reference energy             =    -75.70489077881504

*** tstop() called on node18 at Sat Nov  5 10:19:29 2022
Module time:
	user time   =      15.49 seconds =       0.26 minutes
	system time =       2.57 seconds =       0.04 minutes
	total time  =          6 seconds =       0.10 minutes
Total time:
	user time   =      22.16 seconds =       0.37 minutes
	system time =       2.83 seconds =       0.05 minutes
	total time  =          9 seconds =       0.15 minutes

*** tstart() called on node18
*** at Sat Nov  5 10:19:29 2022

            **************************
            *                        *
            *        CCENERGY        *
            *                        *
            **************************

    Nuclear Rep. energy (wfn)     =    8.790917560162475
    SCF energy          (wfn)     =  -75.704890778814871
    Reference energy    (file100) =  -75.704890778815042

    Input parameters:
    -----------------
    Wave function   =     CC3
    Reference wfn   =     ROHF changed to UHF for Semicanonical Orbitals
    Brueckner       =     No
    Memory (Mbytes) =     31950.0
    Maxiter         =    500
    R_Convergence   =     1.0e-12
    E_Convergence   =     1.0e-06
    Restart         =     Yes
    DIIS            =     Yes
    AO Basis        =     NONE
    ABCD            =     NEW
    Cache Level     =     0
    Cache Type      =     LRU
    Print Level     =     1
    Num. of threads =     4
    # Amps to Print =     10
    Print MP2 Amps? =     No
    Analyze T2 Amps =     No
    Print Pair Ener =     No
    Local CC        =     No
    T3 Ws incore    =     No
    SCS-MP2         =     False
    SCSN-MP2        =     False
    SCS-CCSD        =     False

MP2 correlation energy -0.2070427737897734
                Solving CC Amplitude Equations
                ------------------------------
  Iter             Energy              RMS        T1Diag      D1Diag    New D1Diag    D2Diag
  ----     ---------------------    ---------   ----------  ----------  ----------   --------
     0        -0.207101119081847    0.000e+00    0.013497    0.000000    0.000000    0.000000
     1        -0.222066416863465    3.327e-02    0.016629    0.000000    0.000000    0.000000
     2        -0.227063944017150    1.210e-02    0.018349    0.000000    0.000000    0.000000
     3        -0.227359105407925    4.093e-03    0.018909    0.000000    0.000000    0.000000
     4        -0.227370294756151    1.775e-03    0.018976    0.000000    0.000000    0.000000
     5        -0.227406171938911    7.352e-04    0.018947    0.000000    0.000000    0.000000
     6        -0.227409670580717    2.432e-04    0.018913    0.000000    0.000000    0.000000
     7        -0.227411894436317    9.340e-05    0.018902    0.000000    0.000000    0.000000
     8        -0.227411729805224    3.274e-05    0.018901    0.000000    0.000000    0.000000
     9        -0.227411693297149    1.096e-05    0.018901    0.000000    0.000000    0.000000
    10        -0.227411812155867    4.029e-06    0.018901    0.000000    0.000000    0.000000
    11        -0.227411748277462    1.360e-06    0.018902    0.000000    0.000000    0.000000
    12        -0.227411730804500    4.097e-07    0.018902    0.000000    0.000000    0.000000
    13        -0.227411720383328    1.134e-07    0.018902    0.000000    0.000000    0.000000
    14        -0.227411719997337    3.440e-08    0.018902    0.000000    0.000000    0.000000
    15        -0.227411719946096    1.333e-08    0.018902    0.000000    0.000000    0.000000
    16        -0.227411719867278    6.058e-09    0.018902    0.000000    0.000000    0.000000
    17        -0.227411719764022    2.707e-09    0.018902    0.000000    0.000000    0.000000
    18        -0.227411719700670    1.113e-09    0.018902    0.000000    0.000000    0.000000
    19        -0.227411719691518    4.489e-10    0.018902    0.000000    0.000000    0.000000
    20        -0.227411719692703    1.580e-10    0.018902    0.000000    0.000000    0.000000
    21        -0.227411719691858    5.508e-11    0.018902    0.000000    0.000000    0.000000
    22        -0.227411719691892    1.968e-11    0.018902    0.000000    0.000000    0.000000
    23        -0.227411719691839    6.208e-12    0.018902    0.000000    0.000000    0.000000
    24        -0.227411719691865    2.212e-12    0.018902    0.000000    0.000000    0.000000
    25        -0.227411719691867    7.446e-13    0.018902    0.000000    0.000000    0.000000

    Iterations converged.


    Largest TIA Amplitudes:
              0  26         0.0095943528
              0   0        -0.0088603221
              0  12        -0.0084546350
              0  28        -0.0083808102
              0  30         0.0078626532
              0   9        -0.0077690641
              0  13         0.0076308748
              0   3        -0.0073098686
              3  58        -0.0061914452
              2  30        -0.0059399604

    Largest Tia Amplitudes:
              2   2        -0.0107918583
              1   4        -0.0104258819
              0   0         0.0099729917
              0   3         0.0097099248
              1   1        -0.0092294209
              1  10         0.0085614739
              0  30         0.0081991177
              2   0         0.0081114590
              0  13        -0.0080795363
              2   7         0.0079607872

    Largest TIJAB Amplitudes:
      3   2  63  15        -0.0083727109
      3   1  63  10        -0.0079545537
      3   2  70  30         0.0078292608
      3   1  62  12        -0.0077116252
      2   1  15  10        -0.0070415598
      3   1  63   4        -0.0070295291
      3   1  63   1         0.0068517082
      3   2  64  15        -0.0068350723
      3   2  61  13         0.0067564235
      3   2  58  15        -0.0066560578

    Largest Tijab Amplitudes:
      2   0  63  58         0.0080695678
      1   0  62  58         0.0076875098
      2   0  71  58         0.0074710717
      2   1  15  10         0.0070997746
      2   1  12   4         0.0070324141
      2   1  12  10        -0.0067297285
      2   1  12  11         0.0064091870
      2   1  15   1        -0.0063563314
      2   1  10   2        -0.0060950015
      1   0  69  58         0.0060521231

    Largest TIjAb Amplitudes:
      1   1  10  10         0.0190103671
      2   2  15  15        -0.0179237601
      1   1   4  10         0.0172533878
      1   1  10   4        -0.0171591407
      3   0   0  58         0.0165934026
      1   1   4   4        -0.0160212072
      3   0  12  58         0.0160147383
      3   0  26  58        -0.0152997508
      1   1   1  10        -0.0151644773
      2   0  70  58        -0.0150201534

    SCF energy       (wfn)                    =  -75.704890778814871
    Reference energy (file100)                =  -75.704890778815042

    Opposite-spin MP2 correlation energy      =   -0.158057994857449
    Same-spin MP2 correlation energy          =   -0.045380231187482
    MP2 correlation energy                    =   -0.207042773789773
      * MP2 total energy                      =  -75.911933552604822
    CC3 correlation energy                    =   -0.227411719691867
      * CC3 total energy                      =  -75.932302498506914


*** tstop() called on node18 at Sat Nov  5 10:23:14 2022
Module time:
	user time   =     832.48 seconds =      13.87 minutes
	system time =      61.78 seconds =       1.03 minutes
	total time  =        225 seconds =       3.75 minutes
Total time:
	user time   =     854.64 seconds =      14.24 minutes
	system time =      64.61 seconds =       1.08 minutes
	total time  =        234 seconds =       3.90 minutes

*** tstart() called on node18
*** at Sat Nov  5 10:23:14 2022


			**************************
			*                        *
			*         CCHBAR         *
			*                        *
			**************************

Dots of (HeT1)c in names "CC3 Wxxx" in CC3_HET1 
Wamef terms
	<WAMEF|WAMEF> =   13.2948071537
	<Wamef|Wamef> =   10.8475403916
	<WAmEf|WAmEf> =    9.3097799499
	<WaMeF|WaMeF> =   12.6526763262
Wmnie terms
	<WMNIE (M>N,IE)|WMNIE> =    0.7441867754
	<Wmnie (m>n,ie)|Wmnie> =    0.3278795287
	<WMnIe (Mn,Ie)|WMnIe> =    0.7252223120
	<WmNiE (mN,iE)|WmNiE> =    0.6138135013
	<WMNIE(M>N,EI)|WMNIE(M>N,EI)> =    0.7441867754
	<Wmnie(m>n,ei)|Wmnie(m>n,ei)> =    0.3278795287
	<WMnIe(Mn,eI)|WMnIe(Mn,eI)> =    0.7252223120
	<WmNiE(mN,Ei)|WmNiE(mN,Ei)> =    0.6138135013
Doing Wmnij terms.
	<WMNIJ (M>N,I>J)|WMNIJ> =    9.2282231779
	<Wmnij (m>n,i>j)|Wmnij> =    4.0468514625
	<WMnIj (Mn,Ij)|WMnIj> =    6.3913506613
Doing Wmbij terms.
	<WMBIJ (MB,I>J)|WMBIJ> =    0.7495388621
	<WMBIJ (I>J,MB)|WMBIJ> =    0.7495388621
	<Wmbij (mb,i>j)|Wmbij> =    0.3337057213
	<Wmbij (i>j,mb)|Wmbij> =    0.3337057213
	<WMbIj (Mb,Ij)|WMbIj> =    0.7286840615
	<WMbIj (Ij,Mb)|WMbIj> =    0.7286840615
	<WmBiJ (mB,iJ)|WmBiJ> =    0.6171731414
	<WmBiJ (iJ,mB)|WmBiJ> =    0.6171731414
Doing Wmbej terms.
	<WMBEJ (all ME,JB)|WMBEJ> =   81.8619076588
	<Wmbej|Wmbej> =   61.9668131972
	<WMbEj|WMbEj> =    1.0297045629
	<WmBeJ|WmBeJ> =    1.0392108539
	<WMbeJ|WMbeJ> =   94.8855795076
	<WmBEj|WmBEj> =   67.9550297595
Doing Wabei terms.
	<WABEI (IE,B>A) |WABEI> =   13.3484184852
	<Wabei (ie,b>a)|Wabei> =   10.9463312954
	<WAbEi (iE,bA)|WAbEi> =    9.3847100349
	<WAbEi (iE,Ba)|WAbEi> =   12.6876275154

*** tstop() called on node18 at Sat Nov  5 10:23:16 2022
Module time:
	user time   =       5.34 seconds =       0.09 minutes
	system time =       1.15 seconds =       0.02 minutes
	total time  =          2 seconds =       0.03 minutes
Total time:
	user time   =     859.98 seconds =      14.33 minutes
	system time =      65.76 seconds =       1.10 minutes
	total time  =        236 seconds =       3.93 minutes

*** tstart() called on node18
*** at Sat Nov  5 10:23:16 2022


	**********************************************************
	*  CCEOM: An Equation of Motion Coupled Cluster Program  *
	**********************************************************

	Nuclear Rep. energy (wfn)     =    8.790917560162475
	SCF energy          (wfn)     =  -75.704890778814871
	Reference energy    (file100) =  -75.704890778815042
	CC3 energy          (file100) =   -0.227411719691867

	Input parameters:
	-----------------
	Reference wfn   = ROHF changed to UHF for Semicanonical Orbitals
	Reference EOM wfn=     UHF
	Memory (Mbytes) =  31950.0
	ABCD            =     NEW
	Cache Level     =    0
	Cache Type      =     LRU
	T3 Ws incore  =      No
	Num. of threads =     4
	Local CC        =     No


	CCEOM parameters:
	-----------------
	States sought per irrep     = Ap 0, App 1,
	Max. number of iterations   =   500
	Vectors stored per root     =    12
	Print HbarSS iterations?    =     0
	Excitation range for HBarSS =     2
	Eigenvalue tolerance        = 1.0e-06
	Eigenvalue toleranceSS      = 1.0e-06
	Residual vector tolerance   = 1.0e-08
	Residual vector toleranceSS = 1.0e-06
	Complex tolerance           = 1.0e-12
	Root for properties         =     1
	Sym of state for properties =     Ap
	Guess vectors taken from    = SINGLES
	Restart EOM CC3             = NO
	Collapse with last vector   = YES


Symmetry of ground state: App
Symmetry of excited state: App
Symmetry of right eigenvector: Ap
Obtaining initial guess from singles-singles block of Hbar...Done.

Iter=1    L=1     Root    EOM Energy     Delta E   Res. Norm    Conv?
                     1   0.5772702875   5.77e-01    5.14e-01      N
Iter=2    L=2     Root    EOM Energy     Delta E   Res. Norm    Conv?
                     1   0.4855899683  -9.17e-02    9.72e-02      N
Iter=3    L=3     Root    EOM Energy     Delta E   Res. Norm    Conv?
                     1   0.4794210022  -6.17e-03    6.34e-02      N
Iter=4    L=4     Root    EOM Energy     Delta E   Res. Norm    Conv?
                     1   0.4762225192  -3.20e-03    4.62e-02      N
Iter=5    L=5     Root    EOM Energy     Delta E   Res. Norm    Conv?
                     1   0.4750043002  -1.22e-03    2.70e-02      N
Iter=6    L=6     Root    EOM Energy     Delta E   Res. Norm    Conv?
                     1   0.4745707051  -4.34e-04    1.36e-02      N
Iter=7    L=7     Root    EOM Energy     Delta E   Res. Norm    Conv?
                     1   0.4744317727  -1.39e-04    8.79e-03      N
Iter=8    L=8     Root    EOM Energy     Delta E   Res. Norm    Conv?
                     1   0.4743561995  -7.56e-05    6.23e-03      N
Iter=9    L=9     Root    EOM Energy     Delta E   Res. Norm    Conv?
                     1   0.4743205543  -3.56e-05    3.84e-03      N
Iter=10   L=10    Root    EOM Energy     Delta E   Res. Norm    Conv?
                     1   0.4743095887  -1.10e-05    2.99e-03      N
Iter=11   L=11    Root    EOM Energy     Delta E   Res. Norm    Conv?
                     1   0.4742996575  -9.93e-06    2.40e-03      N
Iter=12   L=12    Root    EOM Energy     Delta E   Res. Norm    Conv?
                     1   0.4742960513  -3.61e-06    1.37e-03      N
Iter=13   L=2     Root    EOM Energy     Delta E   Res. Norm    Conv?
                     1   0.4742960513   8.88e-16    1.37e-03      N
Iter=14   L=3     Root    EOM Energy     Delta E   Res. Norm    Conv?
                     1   0.4742952388  -8.12e-07    6.74e-04      N
Iter=15   L=4     Root    EOM Energy     Delta E   Res. Norm    Conv?
                     1   0.4742954676   2.29e-07    4.06e-04      N
Iter=16   L=5     Root    EOM Energy     Delta E   Res. Norm    Conv?
                     1   0.4742947177  -7.50e-07    2.31e-04      N
Iter=17   L=6     Root    EOM Energy     Delta E   Res. Norm    Conv?
                     1   0.4742942955  -4.22e-07    1.03e-04      N
Iter=18   L=7     Root    EOM Energy     Delta E   Res. Norm    Conv?
                     1   0.4742944044   1.09e-07    4.77e-05      N
Iter=19   L=8     Root    EOM Energy     Delta E   Res. Norm    Conv?
                     1   0.4742943346  -6.98e-08    3.19e-05      N
Iter=20   L=9     Root    EOM Energy     Delta E   Res. Norm    Conv?
                     1   0.4742943216  -1.30e-08    2.79e-05      N
Iter=21   L=10    Root    EOM Energy     Delta E   Res. Norm    Conv?
                     1   0.4742943189  -2.73e-09    1.80e-05      N
Iter=22   L=11    Root    EOM Energy     Delta E   Res. Norm    Conv?
                     1   0.4742943361   1.73e-08    1.04e-05      N
Iter=23   L=12    Root    EOM Energy     Delta E   Res. Norm    Conv?
                     1   0.4742943502   1.41e-08    5.06e-06      N
Iter=24   L=2     Root    EOM Energy     Delta E   Res. Norm    Conv?
                     1   0.4742943502  -1.08e-14    5.06e-06      N
Iter=25   L=3     Root    EOM Energy     Delta E   Res. Norm    Conv?
                     1   0.4742943364  -1.38e-08    2.29e-06      N
Iter=26   L=4     Root    EOM Energy     Delta E   Res. Norm    Conv?
                     1   0.4742943329  -3.53e-09    1.36e-06      N
Iter=27   L=5     Root    EOM Energy     Delta E   Res. Norm    Conv?
                     1   0.4742943341   1.19e-09    9.14e-07      N
Iter=28   L=6     Root    EOM Energy     Delta E   Res. Norm    Conv?
                     1   0.4742943347   6.67e-10    4.55e-07      N
Iter=29   L=7     Root    EOM Energy     Delta E   Res. Norm    Conv?
                     1   0.4742943349   2.01e-10    1.96e-07      N
Iter=30   L=8     Root    EOM Energy     Delta E   Res. Norm    Conv?
                     1   0.4742943348  -1.19e-10    8.96e-08      N
Iter=31   L=9     Root    EOM Energy     Delta E   Res. Norm    Conv?
                     1   0.4742943348  -5.52e-11    4.68e-08      N
Iter=32   L=10    Root    EOM Energy     Delta E   Res. Norm    Conv?
                     1   0.4742943347  -3.02e-11    3.16e-08      N
Iter=33   L=11    Root    EOM Energy     Delta E   Res. Norm    Conv?
                     1   0.4742943347  -5.69e-11    2.10e-08      N
Iter=34   L=12    Root    EOM Energy     Delta E   Res. Norm    Conv?
                     1   0.4742943347   8.06e-12    1.46e-08      N
Iter=35   L=2     Root    EOM Energy     Delta E   Res. Norm    Conv?
                     1   0.4742943347  -1.43e-12    1.17e-08      N
Iter=36   L=3     Root    EOM Energy     Delta E   Res. Norm    Conv?
                     1   0.4742943347  -1.77e-11    9.39e-09      Y
Completed EOM_CCSD
Collapsing to only 1 vector(s).
Copying root 1 to CC3_MISC file.
Setting initial CC3 eigenvalue to    0.4742943347
Iter=1    L=1     Root    EOM Energy     Delta E   Res. Norm    Conv?
                     1   0.4690060710  -5.29e-03    4.35e-02      N
Iter=2    L=2     Root    EOM Energy     Delta E   Res. Norm    Conv?
                     1   0.4674598721  -1.55e-03    2.70e-02      N
Iter=3    L=3     Root    EOM Energy     Delta E   Res. Norm    Conv?
                     1   0.4660122029  -1.45e-03    4.25e-02      N
Iter=4    L=4     Root    EOM Energy     Delta E   Res. Norm    Conv?
                     1   0.4642005233  -1.81e-03    2.50e-02      N
Iter=5    L=5     Root    EOM Energy     Delta E   Res. Norm    Conv?
                     1   0.4638073114  -3.93e-04    1.30e-02      N
Iter=6    L=6     Root    EOM Energy     Delta E   Res. Norm    Conv?
                     1   0.4636753436  -1.32e-04    1.25e-02      N
Iter=7    L=7     Root    EOM Energy     Delta E   Res. Norm    Conv?
                     1   0.4635252637  -1.50e-04    9.40e-03      N
Iter=8    L=8     Root    EOM Energy     Delta E   Res. Norm    Conv?
                     1   0.4634423558  -8.29e-05    5.32e-03      N
Iter=9    L=9     Root    EOM Energy     Delta E   Res. Norm    Conv?
                     1   0.4634366407  -5.72e-06    2.39e-03      N
Iter=10   L=10    Root    EOM Energy     Delta E   Res. Norm    Conv?
                     1   0.4634355644  -1.08e-06    1.21e-03      N
Collapsing to 2 vector(s).
Change in CC3 energy from last iterated value   -0.0108587703
Iter=11   L=2     Root    EOM Energy     Delta E   Res. Norm    Conv?
                     1   0.4634631367   2.76e-05    1.21e-03      N
Iter=12   L=3     Root    EOM Energy     Delta E   Res. Norm    Conv?
                     1   0.4634609024  -2.23e-06    7.94e-04      N
Iter=13   L=4     Root    EOM Energy     Delta E   Res. Norm    Conv?
                     1   0.4634606752  -2.27e-07    4.86e-04      N
Iter=14   L=5     Root    EOM Energy     Delta E   Res. Norm    Conv?
                     1   0.4634610456   3.70e-07    2.25e-04      N
Iter=15   L=6     Root    EOM Energy     Delta E   Res. Norm    Conv?
                     1   0.4634604203  -6.25e-07    1.20e-04      N
Iter=16   L=7     Root    EOM Energy     Delta E   Res. Norm    Conv?
                     1   0.4634604094  -1.09e-08    7.54e-05      N
Iter=17   L=8     Root    EOM Energy     Delta E   Res. Norm    Conv?
                     1   0.4634607212   3.12e-07    5.59e-05      N
Iter=18   L=9     Root    EOM Energy     Delta E   Res. Norm    Conv?
                     1   0.4634607829   6.17e-08    4.71e-05      N
Iter=19   L=10    Root    EOM Energy     Delta E   Res. Norm    Conv?
                     1   0.4634607574  -2.56e-08    3.34e-05      N
Collapsing to 2 vector(s).
Change in CC3 energy from last iterated value    0.0000251930
Iter=20   L=2     Root    EOM Energy     Delta E   Res. Norm    Conv?
                     1   0.4634606625  -9.48e-08    3.30e-05      N
Iter=21   L=3     Root    EOM Energy     Delta E   Res. Norm    Conv?
                     1   0.4634606955   3.29e-08    1.83e-05      N
Iter=22   L=4     Root    EOM Energy     Delta E   Res. Norm    Conv?
                     1   0.4634607150   1.96e-08    1.01e-05      N
Iter=23   L=5     Root    EOM Energy     Delta E   Res. Norm    Conv?
                     1   0.4634607258   1.08e-08    4.89e-06      N
Iter=24   L=6     Root    EOM Energy     Delta E   Res. Norm    Conv?
                     1   0.4634607273   1.52e-09    2.32e-06      N
Iter=25   L=7     Root    EOM Energy     Delta E   Res. Norm    Conv?
                     1   0.4634607265  -8.70e-10    1.38e-06      N
Iter=26   L=8     Root    EOM Energy     Delta E   Res. Norm    Conv?
                     1   0.4634607247  -1.73e-09    8.28e-07      N
Iter=27   L=9     Root    EOM Energy     Delta E   Res. Norm    Conv?
                     1   0.4634607251   3.69e-10    5.10e-07      N
Iter=28   L=10    Root    EOM Energy     Delta E   Res. Norm    Conv?
                     1   0.4634607255   4.09e-10    3.17e-07      N
Collapsing to 2 vector(s).
Change in CC3 energy from last iterated value   -0.0000000318
Iter=29   L=2     Root    EOM Energy     Delta E   Res. Norm    Conv?
                     1   0.4634607256   1.20e-10    3.17e-07      N
Iter=30   L=3     Root    EOM Energy     Delta E   Res. Norm    Conv?
                     1   0.4634607256  -1.27e-11    1.58e-07      N
Iter=31   L=4     Root    EOM Energy     Delta E   Res. Norm    Conv?
                     1   0.4634607257   4.17e-11    8.19e-08      N
Iter=32   L=5     Root    EOM Energy     Delta E   Res. Norm    Conv?
                     1   0.4634607257   2.59e-11    5.26e-08      N
Iter=33   L=6     Root    EOM Energy     Delta E   Res. Norm    Conv?
                     1   0.4634607257   4.97e-13    4.72e-08      N
Iter=34   L=7     Root    EOM Energy     Delta E   Res. Norm    Conv?
                     1   0.4634607257   7.88e-12    3.51e-08      N
Iter=35   L=8     Root    EOM Energy     Delta E   Res. Norm    Conv?
                     1   0.4634607257  -1.21e-11    1.83e-08      N
Iter=36   L=9     Root    EOM Energy     Delta E   Res. Norm    Conv?
                     1   0.4634607257  -2.07e-12    9.29e-09      Y
Collapsing to only 1 vector(s).
Change in CC3 energy from last iterated value    0.0000000002

Procedure converged for 1 root(s).
Energy written to CC_INFO:Etot  -75.4688417728
States per irrep written to CC_INFO.
<R|R> =   1.0000000000000004
EOM CC3 R0 for root 0 =  -0.00400040682

Final Energetic Summary for Converged Roots of Irrep App
                     Excitation Energy              Total Energy
                (eV)     (cm^-1)     (au)             (au)
EOM State 1     12.611   101717.9   0.4634607257   -75.468841772823

Largest components of excited wave function #1:
 RIA (libdpd indices) : (cscf notation)
         2 >   0      :       4ap >    5ap :   -0.4928573441
         2 >   3      :       4ap >    8ap :   -0.1738366061
         2 >   9      :       4ap >   14ap :   -0.1361912128
         2 >   2      :       4ap >    7ap :   -0.1266849437
         2 >   7      :       4ap >   12ap :    0.0511406500
 Ria (libdpd indices) : (cscf notation)
         2 >   0      :       4ap >    5ap :    0.5833230505
         2 >   3      :       4ap >    8ap :    0.2341959670
         2 >   9      :       4ap >   14ap :    0.1711626565
         2 >   2      :       4ap >    7ap :   -0.1383409172
         2 >   7      :       4ap >   12ap :    0.0586023184
 RIjAb (libdpd indices)     : (cscf notation)
        0   2 >   0   0     :   1app    4ap >    5ap   1app :   -0.3344677805
        0   2 >   3   0     :   1app    4ap >    8ap   1app :   -0.1180832666
        0   2 >   0   1     :   1app    4ap >    5ap   2app :   -0.0956198798
        0   2 >   9   0     :   1app    4ap >   14ap   1app :   -0.0929373547
        0   2 >   2   0     :   1app    4ap >    7ap   1app :   -0.0837889227
 RIJAB (libdpd indices)     : (cscf notation)
        0   2 >   5   0     :   1app    4ap >   7app    5ap :   -0.0198163630
        0   2 >   0   0     :   1app    4ap >   2app    5ap :   -0.0193630026
        2   1 >  10   0     :    4ap    3ap >   15ap    5ap :    0.0188435314
        2   1 >   4   0     :    4ap    3ap >    9ap    5ap :    0.0180870325
        2   1 >   1   0     :    4ap    3ap >    6ap    5ap :   -0.0167259602
 Rijab (libdpd indices)     : (cscf notation)
        2   1 >  10   0     :    4ap    3ap >   15ap    5ap :    0.0237605993
        2   1 >   4   0     :    4ap    3ap >    9ap    5ap :   -0.0230752220
        2   1 >   1   0     :    4ap    3ap >    6ap    5ap :   -0.0202164004
        2   1 >  20   0     :    4ap    3ap >   25ap    5ap :    0.0133785995
        2   0 >   9   0     :    4ap    2ap >   14ap    5ap :    0.0094859448

	Putting into environment energy for root of R irrep 1 and root 1.
	Putting into environment CURRENT ENERGY:              -75.4688417728

	Total # of sigma evaluations: 72

*** tstop() called on node18 at Sat Nov  5 10:38:17 2022
Module time:
	user time   =    3383.40 seconds =      56.39 minutes
	system time =     205.07 seconds =       3.42 minutes
	total time  =        901 seconds =      15.02 minutes
Total time:
	user time   =    4243.38 seconds =      70.72 minutes
	system time =     270.83 seconds =       4.51 minutes
	total time  =       1137 seconds =      18.95 minutes

    Psi4 stopped on: Saturday, 05 November 2022 10:38AM
    Psi4 wall time for execution: 0:18:56.74

*** Psi4 exiting successfully. Buy a developer a beer!
