
    -----------------------------------------------------------------------
          Psi4: An Open-Source Ab Initio Electronic Structure Package
                               Psi4 1.2 release

                         Git: Rev {HEAD} 9d4a61c 


    R. M. Parrish, L. A. Burns, D. G. A. Smith, A. C. Simmonett,
    A. E. DePrince III, E. G. Hohenstein, U. Bozkaya, A. Yu. Sokolov,
    R. Di Remigio, R. M. Richard, J. F. Gonthier, A. M. James,
    H. R. McAlexander, A. Kumar, M. Saitow, X. Wang, B. P. Pritchard,
    P. Verma, H. F. Schaefer III, K. Patkowski, R. A. King, E. F. Valeev,
    F. A. Evangelista, J. M. Turney, T. D. Crawford, and C. D. Sherrill,
    J. Chem. Theory Comput. 13(7) pp 3185--3197 (2017).
    (doi: 10.1021/acs.jctc.7b00174)


                         Additional Contributions by
    P. Kraus, H. Kruse, M. H. Lechner, M. C. Schieber, and R. A. Shaw

    -----------------------------------------------------------------------


    Psi4 started on: Saturday, 05 November 2022 10:19AM

    Process ID: 15233
    Host:       node16
    PSIDATADIR: /home/qc/psi4conda/share/psi4
    Memory:     500.0 MiB
    Threads:    4
    
  ==> Input File <==

--------------------------------------------------------------------------
#h2o SPECIAL eom-cc3
memory 31950 mb

molecule h2o{
1 2
H        0.0000000000       -1.5479959825       -0.9666250725
O        0.0000000000       -0.0000000000        0.1169859550
H        0.0000000000        1.5479959825       -0.9666250725

units bohr
}
 
set globals {
 reference rohf
 basis aug-cc-pvtz-dk
 freeze_core true
 cachelevel=0
 relativistic x2c
 maxiter=500
 dertype none
 ints_tolerance 20
 roots_per_irrep = [0,0,1,0]
}

set scf d_convergence 12
set ccenergy r_convergence 12
set cceom r_convergence 8

energy('eom-cc3')--------------------------------------------------------------------------

  Memory set to  29.756 GiB by Python driver.

*** tstart() called on node16
*** at Sat Nov  5 10:19:14 2022

   => Loading Basis Set <=

    Name: AUG-CC-PVTZ-DK
    Role: ORBITAL
    Keyword: BASIS
    atoms 1, 3 entry H          line    45 file /home/qc/psi4conda/share/psi4/basis/aug-cc-pvtz-dk.gbs 
    atoms 2    entry O          line   324 file /home/qc/psi4conda/share/psi4/basis/aug-cc-pvtz-dk.gbs 


         ---------------------------------------------------------
                                   SCF
            by Justin Turney, Rob Parrish, Andy Simmonett
                             and Daniel Smith
                             ROHF Reference
                        4 Threads,  30469 MiB Core
         ---------------------------------------------------------

  ==> Geometry <==

    Molecular point group: c2v
    Full point group: C2v

    Geometry (in Bohr), charge = 1, multiplicity = 2:

       Center              X                  Y                   Z               Mass       
    ------------   -----------------  -----------------  -----------------  -----------------
         H            0.000000000000    -1.547995982500    -0.962338836681     1.007825032070
         O           -0.000000000000     0.000000000000     0.121272190819    15.994914619560
         H           -0.000000000000     1.547995982500    -0.962338836681     1.007825032070

  Running in c2v symmetry.

  Rotational constants: A =     28.64031  B =     12.46348  C =      8.68431 [cm^-1]
  Rotational constants: A = 858614.79648  B = 373645.82913  C = 260349.01291 [MHz]
  Nuclear repulsion =    8.790498054968843

  Charge       = 1
  Multiplicity = 2
  Electrons    = 9
  Nalpha       = 5
  Nbeta        = 4

  ==> Algorithm <==

  SCF Algorithm Type is PK.
  DIIS enabled.
  MOM disabled.
  Fractional occupation disabled.
  Guess Type is GWH.
  Energy threshold   = 1.00e-08
  Density threshold  = 1.00e-12
  Integral threshold = 1.00e-20

  ==> Primary Basis <==

  Basis Set: AUG-CC-PVTZ-DK
    Blend: AUG-CC-PVTZ-DK
    Number of shells: 32
    Number of basis function: 92
    Number of Cartesian functions: 105
    Spherical Harmonics?: true
    Max angular momentum: 3

   => Loading Basis Set <=

    Name: (AUG-CC-PVTZ-DK AUX)
    Role: DECON
    Keyword: BASIS_RELATIVISTIC
    atoms 1, 3 entry H          line    45 file /home/qc/psi4conda/share/psi4/basis/aug-cc-pvtz-dk.gbs func decontract
    atoms 2    entry O          line   324 file /home/qc/psi4conda/share/psi4/basis/aug-cc-pvtz-dk.gbs func decontract

  ==> Pre-Iterations <==

   -------------------------------------------------------
    Irrep   Nso     Nmo     Nalpha   Nbeta   Ndocc  Nsocc
   -------------------------------------------------------
     A1        35      35       0       0       0       0
     A2        12      12       0       0       0       0
     B1        18      18       0       0       0       0
     B2        27      27       0       0       0       0
   -------------------------------------------------------
    Total      92      92       5       4       4       1
   -------------------------------------------------------

 OEINTS: Using relativistic (X2C) overlap, kinetic, and potential integrals.
         ------------------------------------------------------------
         Spin-Free X2C Integrals at the One-Electron Level (SFX2C-1e)
                 by Prakash Verma and Francesco A. Evangelista
         ------------------------------------------------------------

  ==> X2C Options <==

    Computational Basis: AUG-CC-PVTZ-DK
    X2C Basis: (AUG-CC-PVTZ-DK AUX)
    The X2C Hamiltonian will be computed in the X2C Basis

    Comparing only 35 out of 45 elements of H_Dirac

    Comparing only 18 out of 20 elements of H_Dirac

    Comparing only 27 out of 31 elements of H_Dirac

    The 1-norm of |H_X2C - H_Dirac| is: 6.759585471745

    WARNING: The X2C and Dirac Hamiltonians have substatially different eigenvalues!
             This is probably caused by the recontraction of the basis set.

  ==> Integral Setup <==

  Using in-core PK algorithm.
   Calculation information:
      Number of atoms:                   3
      Number of AO shells:              32
      Number of primitives:             52
      Number of atomic orbitals:       105
      Number of basis functions:        92

      Integral cutoff                 1.00e-20
      Number of threads:                 4

  Performing in-core PK
  Using 18305562 doubles for integral storage.
  We computed 171364 shell quartets total.
  Whereas there are 139656 unique shell quartets.
    22.70 percent of shell quartets recomputed by reordering.

  ==> DiskJK: Disk-Based J/K Matrices <==

    J tasked:                  Yes
    K tasked:                  Yes
    wK tasked:                  No
    Memory (MB):             22852
    Schwarz Cutoff:          1E-20

    OpenMP threads:              4

  Minimum eigenvalue in the overlap matrix is 4.0838000659E-04.
  Using Symmetric Orthogonalization.

  SCF Guess: Generalized Wolfsberg-Helmholtz.

  ==> Iterations <==

                        Total Energy        Delta E     RMS |[F,P]|

   @ROHF iter   1:   -69.33958775706427   -6.93396e+01   1.03914e-01 
   @ROHF iter   2:   -75.57240330577469   -6.23282e+00   1.45394e-02 DIIS
   @ROHF iter   3:   -75.69037355296089   -1.17970e-01   3.51038e-03 DIIS
   @ROHF iter   4:   -75.70257325993188   -1.21997e-02   1.34473e-03 DIIS
   @ROHF iter   5:   -75.70476645319323   -2.19319e-03   4.29791e-04 DIIS
   @ROHF iter   6:   -75.70495546101384   -1.89008e-04   7.63225e-05 DIIS
   @ROHF iter   7:   -75.70496470943215   -9.24842e-06   1.36926e-05 DIIS
   @ROHF iter   8:   -75.70496495440082   -2.44969e-07   1.51501e-06 DIIS
   @ROHF iter   9:   -75.70496495892624   -4.52542e-09   3.35609e-07 DIIS
   @ROHF iter  10:   -75.70496495904794   -1.21702e-10   7.70089e-08 DIIS
   @ROHF iter  11:   -75.70496495905414   -6.19593e-12   1.00163e-08 DIIS
   @ROHF iter  12:   -75.70496495905425   -1.13687e-13   1.18085e-09 DIIS
   @ROHF iter  13:   -75.70496495905425    0.00000e+00   1.87245e-10 DIIS
   @ROHF iter  14:   -75.70496495905419    5.68434e-14   2.88713e-11 DIIS
   @ROHF iter  15:   -75.70496495905425   -5.68434e-14   6.31006e-12 DIIS
   @ROHF iter  16:   -75.70496495905419    5.68434e-14   9.97417e-13 DIIS

  ==> Post-Iterations <==

    Orbital Energies [Eh]
    ---------------------

    Doubly Occupied:                                                      

       1A1   -21.117765     2A1    -1.800484     1B2    -1.176205  
       3A1    -1.046944  

    Singly Occupied:                                                      

       1B1    -0.685933  

    Virtual:                                                              

       4A1    -0.181136     2B2    -0.116675     5A1    -0.060794  
       2B1    -0.057654     6A1    -0.042421     3B2    -0.027081  
       4B2     0.010511     7A1     0.017774     1A2     0.036327  
       3B1     0.070459     8A1     0.072972     5B2     0.162664  
       9A1     0.177916     6B2     0.195038     7B2     0.323374  
      10A1     0.346937    11A1     0.409165     4B1     0.422425  
       2A2     0.422624    12A1     0.515942     5B1     0.554507  
      13A1     0.583388     8B2     0.596841     6B1     0.608122  
       3A2     0.622969     9B2     0.661250    14A1     0.669070  
      15A1     0.728249    10B2     0.742766     7B1     0.748767  
      11B2     0.828857    16A1     0.859786     4A2     0.870511  
      12B2     0.964808     5A2     1.165443     8B1     1.225397  
      17A1     1.248803    13B2     1.404436    18A1     1.441672  
      14B2     1.583365    19A1     1.682352     9B1     1.831444  
       6A2     1.898926    20A1     1.943488    21A1     1.978500  
      10B1     2.001633    15B2     2.051034    22A1     2.094523  
      11B1     2.307916    23A1     2.312918    16B2     2.324134  
       7A2     2.450588    17B2     2.494592    18B2     3.159712  
      24A1     3.308159     8A2     3.574347    12B1     3.584611  
      19B2     3.769920    25A1     3.778268    13B1     3.900765  
      14B1     3.966234     9A2     3.970449    20B2     4.044049  
      26A1     4.085633    27A1     4.198731    21B2     4.267750  
      22B2     4.604573    10A2     4.636481    28A1     4.732173  
      23B2     4.840868    15B1     4.915537    29A1     5.228377  
      30A1     5.593630    24B2     6.068929    16B1     6.202054  
      31A1     6.287107    17B1     6.603394    18B1     6.705916  
      11A2     6.707795    32A1     6.768267    25B2     6.849877  
      12A2     6.852655    33A1     6.970222    26B2     7.298821  
      34A1     7.411242    27B2     8.075350    35A1    14.121532  

    Final Occupation by Irrep:
             A1    A2    B1    B2 
    DOCC [     3,    0,    0,    1 ]
    SOCC [     0,    0,    1,    0 ]

  Energy converged.

  @ROHF Final Energy:   -75.70496495905419

   => Energetics <=

    Nuclear Repulsion Energy =              8.7904980549688432
    One-Electron Energy =                -117.6003920168260777
    Two-Electron Energy =                  33.1049290028030470
    Total Energy =                        -75.7049649590541804



Properties will be evaluated at   0.000000,   0.000000,   0.000000 [a0]

Properties computed using the SCF density matrix

  Nuclear Dipole Moment: [e a0]
     X:     0.0000      Y:     0.0000      Z:    -0.9545

  Electronic Dipole Moment: [e a0]
     X:     0.0000      Y:     0.0000      Z:    -0.0057

  Dipole Moment: [e a0]
     X:     0.0000      Y:     0.0000      Z:    -0.9602     Total:     0.9602

  Dipole Moment: [D]
     X:     0.0000      Y:     0.0000      Z:    -2.4405     Total:     2.4405


*** tstop() called on node16 at Sat Nov  5 10:19:16 2022
Module time:
	user time   =       5.16 seconds =       0.09 minutes
	system time =       0.14 seconds =       0.00 minutes
	total time  =          2 seconds =       0.03 minutes
Total time:
	user time   =       5.16 seconds =       0.09 minutes
	system time =       0.14 seconds =       0.00 minutes
	total time  =          2 seconds =       0.03 minutes
   => Loading Basis Set <=

    Name: (AUG-CC-PVTZ-DK AUX)
    Role: DECON
    Keyword: BASIS_RELATIVISTIC
    atoms 1, 3 entry H          line    45 file /home/qc/psi4conda/share/psi4/basis/aug-cc-pvtz-dk.gbs func decontract
    atoms 2    entry O          line   324 file /home/qc/psi4conda/share/psi4/basis/aug-cc-pvtz-dk.gbs func decontract

 MINTS: Wrapper to libmints.
   by Justin Turney

   Calculation information:
      Number of threads:                 4
      Number of atoms:                   3
      Number of AO shells:              32
      Number of SO shells:              23
      Number of primitives:             52
      Number of atomic orbitals:       105
      Number of basis functions:        92

      Number of irreps:                  4
      Integral cutoff                 1.00e-20
      Number of functions per irrep: [  35   12   18   27 ]

 OEINTS: Using relativistic (X2C) overlap, kinetic, and potential integrals.
         ------------------------------------------------------------
         Spin-Free X2C Integrals at the One-Electron Level (SFX2C-1e)
                 by Prakash Verma and Francesco A. Evangelista
         ------------------------------------------------------------

  ==> X2C Options <==

    Computational Basis: AUG-CC-PVTZ-DK
    X2C Basis: (AUG-CC-PVTZ-DK AUX)
    The X2C Hamiltonian will be computed in the X2C Basis

    Comparing only 35 out of 45 elements of H_Dirac

    Comparing only 18 out of 20 elements of H_Dirac

    Comparing only 27 out of 31 elements of H_Dirac

    The 1-norm of |H_X2C - H_Dirac| is: 6.759585471745

    WARNING: The X2C and Dirac Hamiltonians have substatially different eigenvalues!
             This is probably caused by the recontraction of the basis set.

 OEINTS: Overlap, kinetic, potential, dipole, and quadrupole integrals
         stored in file 35.

      Computing two-electron integrals...done
      Computed 2247168 non-zero two-electron integrals.
        Stored in file 33.


*** tstart() called on node16
*** at Sat Nov  5 10:19:17 2022


	Wfn Parameters:
	--------------------
	Wavefunction         = CC3
	Number of irreps     = 4
	Number of MOs        = 92
	Number of active MOs = 91
	AO-Basis             = NONE
	Semicanonical        = true
	Reference            = ROHF changed to UHF for semicanonical orbitals
	Print Level          = 1

	IRREP	# MOs	# FZDC	# DOCC	# SOCC	# VIRT	# FZVR
	-----	-----	------	------	------	------	------
	 A1	   35	    1	    2	    0	    32	    0
	 A2	   12	    0	    0	    0	    12	    0
	 B1	   18	    0	    0	    1	    17	    0
	 B2	   27	    0	    1	    0	    26	    0
	Transforming integrals...
	IWL integrals will be deleted.
	(OO|OO)...
	Presorting SO-basis two-electron integrals.
	Sorting File: SO Ints (nn|nn) nbuckets = 1
	Transforming the one-electron integrals and constructing Fock matrices
	Starting AA/AB first half-transformation.
	Sorting AA/AB half-transformed integrals.
	Starting BB first half-transformation.
	Sorting BB half-transformed integrals.
	First half integral transformation complete.
	Starting AA second half-transformation.
	Starting AB second half-transformation.
	Starting BB second half-transformation.
	Two-electron integral transformation complete.
	(OO|OV)...
	Starting AA second half-transformation.
	Starting AB second half-transformation.
	Starting BB second half-transformation.
	Two-electron integral transformation complete.
	(OO|VV)...
	Starting AA second half-transformation.
	Starting AB second half-transformation.
	Starting BB second half-transformation.
	Two-electron integral transformation complete.
	(OV|OO)...
	Starting AA/AB first half-transformation.
	Sorting AA/AB half-transformed integrals.
	Starting BB first half-transformation.
	Sorting BB half-transformed integrals.
	First half integral transformation complete.
	Starting AA second half-transformation.
	Starting AB second half-transformation.
	Starting BB second half-transformation.
	Two-electron integral transformation complete.
	(OV|OV)...
	Starting AA second half-transformation.
	Starting AB second half-transformation.
	Starting BB second half-transformation.
	Two-electron integral transformation complete.
	(OV|VV)...
	Starting AA second half-transformation.
	Starting AB second half-transformation.
	Starting BB second half-transformation.
	Two-electron integral transformation complete.
	(VV|OO)...
	Starting AA/AB first half-transformation.
	Sorting AA/AB half-transformed integrals.
	Starting BB first half-transformation.
	Sorting BB half-transformed integrals.
	First half integral transformation complete.
	Starting AA second half-transformation.
	Starting AB second half-transformation.
	Starting BB second half-transformation.
	Two-electron integral transformation complete.
	(VV|OV)...
	Starting AA second half-transformation.
	Starting AB second half-transformation.
	Starting BB second half-transformation.
	Two-electron integral transformation complete.
	(VV|VV)...
	Starting AA second half-transformation.
	Starting AB second half-transformation.
	Starting BB second half-transformation.
	Two-electron integral transformation complete.
	Frozen core energy     =    -61.26794207419839

	Size of irrep 0 of <AB|CD> integrals:      1.047 (MW) /      8.372 (MB)
	Size of irrep 1 of <AB|CD> integrals:      0.682 (MW) /      5.458 (MB)
	Size of irrep 2 of <AB|CD> integrals:      0.733 (MW) /      5.862 (MB)
	Size of irrep 3 of <AB|CD> integrals:      1.073 (MW) /      8.586 (MB)
	Total:                                     3.535 (MW) /     28.279 (MB)

	Size of irrep 0 of <ab|cd> integrals:      1.082 (MW) /      8.653 (MB)
	Size of irrep 1 of <ab|cd> integrals:      0.726 (MW) /      5.807 (MB)
	Size of irrep 2 of <ab|cd> integrals:      0.789 (MW) /      6.308 (MB)
	Size of irrep 3 of <ab|cd> integrals:      1.098 (MW) /      8.786 (MB)
	Total:                                     3.694 (MW) /     29.555 (MB)

	Size of irrep 0 of <Ab|Cd> integrals:      4.622 (MW) /     36.980 (MB)
	Size of irrep 1 of <Ab|Cd> integrals:      2.816 (MW) /     22.525 (MB)
	Size of irrep 2 of <Ab|Cd> integrals:      3.042 (MW) /     24.332 (MB)
	Size of irrep 3 of <Ab|Cd> integrals:      4.343 (MW) /     34.744 (MB)
	Total:                                    14.823 (MW) /    118.582 (MB)

	Size of irrep 0 of <IA|BC> integrals:      0.228 (MW) /      1.826 (MB)
	Size of irrep 1 of <IA|BC> integrals:      0.111 (MW) /      0.885 (MB)
	Size of irrep 2 of <IA|BC> integrals:      0.134 (MW) /      1.068 (MB)
	Size of irrep 3 of <IA|BC> integrals:      0.199 (MW) /      1.591 (MB)
	Total:                                     0.671 (MW) /      5.371 (MB)

	Size of irrep 0 of <ia|bc> integrals:      0.195 (MW) /      1.561 (MB)
	Size of irrep 1 of <ia|bc> integrals:      0.072 (MW) /      0.573 (MB)
	Size of irrep 2 of <ia|bc> integrals:      0.085 (MW) /      0.682 (MB)
	Size of irrep 3 of <ia|bc> integrals:      0.176 (MW) /      1.409 (MB)
	Total:                                     0.528 (MW) /      4.224 (MB)

	Size of irrep 0 of <Ia|Bc> integrals:      0.232 (MW) /      1.858 (MB)
	Size of irrep 1 of <Ia|Bc> integrals:      0.114 (MW) /      0.913 (MB)
	Size of irrep 2 of <Ia|Bc> integrals:      0.140 (MW) /      1.116 (MB)
	Size of irrep 3 of <Ia|Bc> integrals:      0.200 (MW) /      1.601 (MB)
	Total:                                     0.686 (MW) /      5.487 (MB)

	Size of irrep 0 of <iA|bC> integrals:      0.194 (MW) /      1.548 (MB)
	Size of irrep 1 of <iA|bC> integrals:      0.069 (MW) /      0.550 (MB)
	Size of irrep 2 of <iA|bC> integrals:      0.080 (MW) /      0.642 (MB)
	Size of irrep 3 of <iA|bC> integrals:      0.175 (MW) /      1.400 (MB)
	Total:                                     0.518 (MW) /      4.141 (MB)

	Size of irrep 0 of tIjAb amplitudes:       0.011 (MW) /      0.086 (MB)
	Size of irrep 1 of tIjAb amplitudes:       0.002 (MW) /      0.013 (MB)
	Size of irrep 2 of tIjAb amplitudes:       0.003 (MW) /      0.028 (MB)
	Size of irrep 3 of tIjAb amplitudes:       0.008 (MW) /      0.067 (MB)
	Total:                                     0.024 (MW) /      0.194 (MB)

	Nuclear Rep. energy          =      8.79049805496884
	SCF energy                   =    -75.70496495905419
	One-electron energy          =    -37.30007382060258
	Two-electron (AA) energy     =      3.70081980343418
	Two-electron (BB) energy     =      1.75301415748432
	Two-electron (AB) energy     =      8.61871891985942
	Two-electron energy          =     14.07255288077792
	Reference energy             =    -75.70496495905422

*** tstop() called on node16 at Sat Nov  5 10:19:20 2022
Module time:
	user time   =       2.13 seconds =       0.04 minutes
	system time =       0.98 seconds =       0.02 minutes
	total time  =          3 seconds =       0.05 minutes
Total time:
	user time   =       9.03 seconds =       0.15 minutes
	system time =       1.22 seconds =       0.02 minutes
	total time  =          6 seconds =       0.10 minutes

*** tstart() called on node16
*** at Sat Nov  5 10:19:20 2022

            **************************
            *                        *
            *        CCENERGY        *
            *                        *
            **************************

    Nuclear Rep. energy (wfn)     =    8.790498054968843
    SCF energy          (wfn)     =  -75.704964959054195
    Reference energy    (file100) =  -75.704964959054223

    Input parameters:
    -----------------
    Wave function   =     CC3
    Reference wfn   =     ROHF changed to UHF for Semicanonical Orbitals
    Brueckner       =     No
    Memory (Mbytes) =     31950.0
    Maxiter         =    500
    R_Convergence   =     1.0e-12
    E_Convergence   =     1.0e-06
    Restart         =     Yes
    DIIS            =     Yes
    AO Basis        =     NONE
    ABCD            =     NEW
    Cache Level     =     0
    Cache Type      =     LRU
    Print Level     =     1
    Num. of threads =     4
    # Amps to Print =     10
    Print MP2 Amps? =     No
    Analyze T2 Amps =     No
    Print Pair Ener =     No
    Local CC        =     No
    T3 Ws incore    =     No
    SCS-MP2         =     False
    SCSN-MP2        =     False
    SCS-CCSD        =     False

MP2 correlation energy -0.2070438849228408
                Solving CC Amplitude Equations
                ------------------------------
  Iter             Energy              RMS        T1Diag      D1Diag    New D1Diag    D2Diag
  ----     ---------------------    ---------   ----------  ----------  ----------   --------
     0        -0.207102229952595    0.000e+00    0.013497    0.000000    0.000000    0.000000
     1        -0.222067537428257    3.326e-02    0.016629    0.000000    0.000000    0.000000
     2        -0.227064831770972    1.210e-02    0.018348    0.000000    0.000000    0.000000
     3        -0.227359924371412    4.092e-03    0.018908    0.000000    0.000000    0.000000
     4        -0.227371134052746    1.774e-03    0.018974    0.000000    0.000000    0.000000
     5        -0.227406985097739    7.345e-04    0.018945    0.000000    0.000000    0.000000
     6        -0.227410475577198    2.428e-04    0.018912    0.000000    0.000000    0.000000
     7        -0.227412695650274    9.317e-05    0.018901    0.000000    0.000000    0.000000
     8        -0.227412531428858    3.265e-05    0.018899    0.000000    0.000000    0.000000
     9        -0.227412495349492    1.093e-05    0.018899    0.000000    0.000000    0.000000
    10        -0.227412613927188    4.019e-06    0.018900    0.000000    0.000000    0.000000
    11        -0.227412550233620    1.355e-06    0.018900    0.000000    0.000000    0.000000
    12        -0.227412532809237    4.074e-07    0.018900    0.000000    0.000000    0.000000
    13        -0.227412522439617    1.121e-07    0.018900    0.000000    0.000000    0.000000
    14        -0.227412522047891    3.359e-08    0.018900    0.000000    0.000000    0.000000
    15        -0.227412521988121    1.282e-08    0.018900    0.000000    0.000000    0.000000
    16        -0.227412521906460    5.793e-09    0.018900    0.000000    0.000000    0.000000
    17        -0.227412521802701    2.608e-09    0.018900    0.000000    0.000000    0.000000
    18        -0.227412521738943    1.080e-09    0.018900    0.000000    0.000000    0.000000
    19        -0.227412521729275    4.358e-10    0.018900    0.000000    0.000000    0.000000
    20        -0.227412521730399    1.532e-10    0.018900    0.000000    0.000000    0.000000
    21        -0.227412521729631    5.295e-11    0.018900    0.000000    0.000000    0.000000
    22        -0.227412521729714    1.857e-11    0.018900    0.000000    0.000000    0.000000
    23        -0.227412521729688    5.539e-12    0.018900    0.000000    0.000000    0.000000
    24        -0.227412521729724    1.815e-12    0.018900    0.000000    0.000000    0.000000
    25        -0.227412521729731    5.237e-13    0.018900    0.000000    0.000000    0.000000

    Iterations converged.


    Largest TIA Amplitudes:
              0  14         0.0096449723
              0   0         0.0088593109
              0   6         0.0084531708
              0  15         0.0084203652
              0  17        -0.0078666005
              0   5        -0.0078175170
              0   7         0.0076318487
              0   2        -0.0073387046
              2  44        -0.0061919995
              1  17         0.0059382434

    Largest Tia Amplitudes:
              1   1         0.0107891547
              2  63        -0.0104873388
              0   0        -0.0099725789
              0   2         0.0097483223
              2  62        -0.0092307571
              2  66         0.0086424721
              0  17         0.0082148916
              1   0        -0.0080971376
              0   7         0.0080803224
              1   4         0.0079622246

    Largest TIJAB Amplitudes:
      2   1  47   9         0.0083750214
      3   2  65  47         0.0079946967
      3   2  33   6         0.0079610428
      2   1  51  17         0.0078277592
      3   1  65   9        -0.0070889104
      3   2  62  47         0.0070523993
      2   1  46   7         0.0069676383
      3   2  61  47         0.0068542184
      2   1  48   9        -0.0068399045
      2   1  44   9         0.0066588379

    Largest Tijab Amplitudes:
      1   0  47  44         0.0081303618
      2   0  44  33        -0.0077462997
      1   0  52  44         0.0074702779
      2   1  66   9        -0.0071665344
      2   1  63   6         0.0070675996
      2   1  66   6        -0.0067875799
      2   1  67   6        -0.0064093046
      2   1  62   9         0.0063585007
      2   1  66   1        -0.0061472435
      2   0  44  36        -0.0060684698

    Largest TIjAb Amplitudes:
      3   2  65  66        -0.0191725061
      1   1   9   9        -0.0179373365
      3   2  62  66        -0.0173901210
      3   2  65  63         0.0172757266
      2   0   0  44        -0.0165924689
      3   2  62  63         0.0161115338
      2   0   6  44        -0.0160129799
      2   0  14  44        -0.0153814844
      3   2  61  66        -0.0152956121
      1   0  51  44         0.0150171167

    SCF energy       (wfn)                    =  -75.704964959054195
    Reference energy (file100)                =  -75.704964959054223

    Opposite-spin MP2 correlation energy      =   -0.158058731209204
    Same-spin MP2 correlation energy          =   -0.045380576097881
    MP2 correlation energy                    =   -0.207043884922841
      * MP2 total energy                      =  -75.912008843977063
    CC3 correlation energy                    =   -0.227412521729731
      * CC3 total energy                      =  -75.932377480783956


*** tstop() called on node16 at Sat Nov  5 10:21:23 2022
Module time:
	user time   =     451.90 seconds =       7.53 minutes
	system time =      35.68 seconds =       0.59 minutes
	total time  =        123 seconds =       2.05 minutes
Total time:
	user time   =     460.93 seconds =       7.68 minutes
	system time =      36.90 seconds =       0.61 minutes
	total time  =        129 seconds =       2.15 minutes

*** tstart() called on node16
*** at Sat Nov  5 10:21:23 2022


			**************************
			*                        *
			*         CCHBAR         *
			*                        *
			**************************

Dots of (HeT1)c in names "CC3 Wxxx" in CC3_HET1 
Wamef terms
	<WAMEF|WAMEF> =   13.2946924128
	<Wamef|Wamef> =   10.8474461594
	<WAmEf|WAmEf> =    9.3097263161
	<WaMeF|WaMeF> =   12.6525921919
Wmnie terms
	<WMNIE (M>N,IE)|WMNIE> =    0.7441685085
	<Wmnie (m>n,ie)|Wmnie> =    0.3278680531
	<WMnIe (Mn,Ie)|WMnIe> =    0.7252029233
	<WmNiE (mN,iE)|WmNiE> =    0.6137916929
	<WMNIE(M>N,EI)|WMNIE(M>N,EI)> =    0.7441685085
	<Wmnie(m>n,ei)|Wmnie(m>n,ei)> =    0.3278680531
	<WMnIe(Mn,eI)|WMnIe(Mn,eI)> =    0.7252029233
	<WmNiE(mN,Ei)|WmNiE(mN,Ei)> =    0.6137916929
Doing Wmnij terms.
	<WMNIJ (M>N,I>J)|WMNIJ> =    9.2280197678
	<Wmnij (m>n,i>j)|Wmnij> =    4.0467481252
	<WMnIj (Mn,Ij)|WMnIj> =    6.3911792765
Doing Wmbij terms.
	<WMBIJ (MB,I>J)|WMBIJ> =    0.7495203800
	<WMBIJ (I>J,MB)|WMBIJ> =    0.7495203800
	<Wmbij (mb,i>j)|Wmbij> =    0.3336931181
	<Wmbij (i>j,mb)|Wmbij> =    0.3336931181
	<WMbIj (Mb,Ij)|WMbIj> =    0.7286634176
	<WMbIj (Ij,Mb)|WMbIj> =    0.7286634176
	<WmBiJ (mB,iJ)|WmBiJ> =    0.6171512476
	<WmBiJ (iJ,mB)|WmBiJ> =    0.6171512476
Doing Wmbej terms.
	<WMBEJ (all ME,JB)|WMBEJ> =   81.8609973403
	<Wmbej|Wmbej> =   61.9660362712
	<WMbEj|WMbEj> =    1.0296881083
	<WmBeJ|WmBeJ> =    1.0391937901
	<WMbeJ|WMbeJ> =   94.8844799307
	<WmBEj|WmBEj> =   67.9541562453
Doing Wabei terms.
	<WABEI (IE,B>A) |WABEI> =   13.3483021636
	<Wabei (ie,b>a)|Wabei> =   10.9462025769
	<WAbEi (iE,bA)|WAbEi> =    9.3846301089
	<WAbEi (iE,Ba)|WAbEi> =   12.6875408220

*** tstop() called on node16 at Sat Nov  5 10:21:24 2022
Module time:
	user time   =       3.35 seconds =       0.06 minutes
	system time =       0.64 seconds =       0.01 minutes
	total time  =          1 seconds =       0.02 minutes
Total time:
	user time   =     464.28 seconds =       7.74 minutes
	system time =      37.54 seconds =       0.63 minutes
	total time  =        130 seconds =       2.17 minutes

*** tstart() called on node16
*** at Sat Nov  5 10:21:24 2022


	**********************************************************
	*  CCEOM: An Equation of Motion Coupled Cluster Program  *
	**********************************************************

	Nuclear Rep. energy (wfn)     =    8.790498054968843
	SCF energy          (wfn)     =  -75.704964959054195
	Reference energy    (file100) =  -75.704964959054223
	CC3 energy          (file100) =   -0.227412521729731

	Input parameters:
	-----------------
	Reference wfn   = ROHF changed to UHF for Semicanonical Orbitals
	Reference EOM wfn=     UHF
	Memory (Mbytes) =  31950.0
	ABCD            =     NEW
	Cache Level     =    0
	Cache Type      =     LRU
	T3 Ws incore  =      No
	Num. of threads =     4
	Local CC        =     No


	CCEOM parameters:
	-----------------
	States sought per irrep     = A1 0, A2 0, B1 1, B2 0,
	Max. number of iterations   =   500
	Vectors stored per root     =    12
	Print HbarSS iterations?    =     0
	Excitation range for HBarSS =     2
	Eigenvalue tolerance        = 1.0e-06
	Eigenvalue toleranceSS      = 1.0e-06
	Residual vector tolerance   = 1.0e-08
	Residual vector toleranceSS = 1.0e-06
	Complex tolerance           = 1.0e-12
	Root for properties         =     1
	Sym of state for properties =     A1
	Guess vectors taken from    = SINGLES
	Restart EOM CC3             = NO
	Collapse with last vector   = YES


Symmetry of ground state: B1
Symmetry of excited state: B1
Symmetry of right eigenvector: A1
Obtaining initial guess from singles-singles block of Hbar...Done.

Iter=1    L=1     Root    EOM Energy     Delta E   Res. Norm    Conv?
                     1   0.5776841190   5.78e-01    5.15e-01      N
Iter=2    L=2     Root    EOM Energy     Delta E   Res. Norm    Conv?
                     1   0.4857749512  -9.19e-02    9.73e-02      N
Iter=3    L=3     Root    EOM Energy     Delta E   Res. Norm    Conv?
                     1   0.4796218239  -6.15e-03    6.31e-02      N
Iter=4    L=4     Root    EOM Energy     Delta E   Res. Norm    Conv?
                     1   0.4764564870  -3.17e-03    4.59e-02      N
Iter=5    L=5     Root    EOM Energy     Delta E   Res. Norm    Conv?
                     1   0.4752532072  -1.20e-03    2.69e-02      N
Iter=6    L=6     Root    EOM Energy     Delta E   Res. Norm    Conv?
                     1   0.4748232464  -4.30e-04    1.35e-02      N
Iter=7    L=7     Root    EOM Energy     Delta E   Res. Norm    Conv?
                     1   0.4746855218  -1.38e-04    8.72e-03      N
Iter=8    L=8     Root    EOM Energy     Delta E   Res. Norm    Conv?
                     1   0.4746106257  -7.49e-05    6.19e-03      N
Iter=9    L=9     Root    EOM Energy     Delta E   Res. Norm    Conv?
                     1   0.4745752748  -3.54e-05    3.82e-03      N
Iter=10   L=10    Root    EOM Energy     Delta E   Res. Norm    Conv?
                     1   0.4745643710  -1.09e-05    2.98e-03      N
Iter=11   L=11    Root    EOM Energy     Delta E   Res. Norm    Conv?
                     1   0.4745542714  -1.01e-05    2.41e-03      N
Iter=12   L=12    Root    EOM Energy     Delta E   Res. Norm    Conv?
                     1   0.4745505451  -3.73e-06    1.38e-03      N
Iter=13   L=2     Root    EOM Energy     Delta E   Res. Norm    Conv?
                     1   0.4745505451  -3.89e-16    1.38e-03      N
Iter=14   L=3     Root    EOM Energy     Delta E   Res. Norm    Conv?
                     1   0.4745497507  -7.94e-07    6.71e-04      N
Iter=15   L=4     Root    EOM Energy     Delta E   Res. Norm    Conv?
                     1   0.4745499822   2.31e-07    3.98e-04      N
Iter=16   L=5     Root    EOM Energy     Delta E   Res. Norm    Conv?
                     1   0.4745492599  -7.22e-07    2.23e-04      N
Iter=17   L=6     Root    EOM Energy     Delta E   Res. Norm    Conv?
                     1   0.4745488654  -3.95e-07    9.43e-05      N
Iter=18   L=7     Root    EOM Energy     Delta E   Res. Norm    Conv?
                     1   0.4745489643   9.89e-08    3.63e-05      N
Iter=19   L=8     Root    EOM Energy     Delta E   Res. Norm    Conv?
                     1   0.4745489232  -4.11e-08    1.45e-05      N
Iter=20   L=9     Root    EOM Energy     Delta E   Res. Norm    Conv?
                     1   0.4745489183  -4.88e-09    6.51e-06      N
Iter=21   L=10    Root    EOM Energy     Delta E   Res. Norm    Conv?
                     1   0.4745489165  -1.81e-09    2.67e-06      N
Iter=22   L=11    Root    EOM Energy     Delta E   Res. Norm    Conv?
                     1   0.4745489190   2.53e-09    9.93e-07      N
Iter=23   L=12    Root    EOM Energy     Delta E   Res. Norm    Conv?
                     1   0.4745489229   3.83e-09    4.37e-07      N
Iter=24   L=2     Root    EOM Energy     Delta E   Res. Norm    Conv?
                     1   0.4745489229  -8.68e-13    4.37e-07      N
Iter=25   L=3     Root    EOM Energy     Delta E   Res. Norm    Conv?
                     1   0.4745489235   6.32e-10    2.96e-07      N
Iter=26   L=4     Root    EOM Energy     Delta E   Res. Norm    Conv?
                     1   0.4745489238   3.33e-10    2.11e-07      N
Iter=27   L=5     Root    EOM Energy     Delta E   Res. Norm    Conv?
                     1   0.4745489245   6.76e-10    1.37e-07      N
Iter=28   L=6     Root    EOM Energy     Delta E   Res. Norm    Conv?
                     1   0.4745489247   2.10e-10    8.64e-08      N
Iter=29   L=7     Root    EOM Energy     Delta E   Res. Norm    Conv?
                     1   0.4745489249   2.00e-10    5.65e-08      N
Iter=30   L=8     Root    EOM Energy     Delta E   Res. Norm    Conv?
                     1   0.4745489249   9.76e-12    3.90e-08      N
Iter=31   L=9     Root    EOM Energy     Delta E   Res. Norm    Conv?
                     1   0.4745489249  -2.06e-11    2.44e-08      N
Iter=32   L=10    Root    EOM Energy     Delta E   Res. Norm    Conv?
                     1   0.4745489249   3.26e-12    1.47e-08      N
Iter=33   L=11    Root    EOM Energy     Delta E   Res. Norm    Conv?
                     1   0.4745489249  -2.98e-11    9.47e-09      Y
Completed EOM_CCSD
Collapsing to only 1 vector(s).
Copying root 1 to CC3_MISC file.
Setting initial CC3 eigenvalue to    0.4745489249
Iter=1    L=1     Root    EOM Energy     Delta E   Res. Norm    Conv?
                     1   0.4692679230  -5.28e-03    4.35e-02      N
Iter=2    L=2     Root    EOM Energy     Delta E   Res. Norm    Conv?
                     1   0.4677195858  -1.55e-03    2.70e-02      N
Iter=3    L=3     Root    EOM Energy     Delta E   Res. Norm    Conv?
                     1   0.4662727136  -1.45e-03    4.25e-02      N
Iter=4    L=4     Root    EOM Energy     Delta E   Res. Norm    Conv?
                     1   0.4644598865  -1.81e-03    2.50e-02      N
Iter=5    L=5     Root    EOM Energy     Delta E   Res. Norm    Conv?
                     1   0.4640664916  -3.93e-04    1.30e-02      N
Iter=6    L=6     Root    EOM Energy     Delta E   Res. Norm    Conv?
                     1   0.4639342418  -1.32e-04    1.25e-02      N
Iter=7    L=7     Root    EOM Energy     Delta E   Res. Norm    Conv?
                     1   0.4637833880  -1.51e-04    9.42e-03      N
Iter=8    L=8     Root    EOM Energy     Delta E   Res. Norm    Conv?
                     1   0.4637000903  -8.33e-05    5.33e-03      N
Iter=9    L=9     Root    EOM Energy     Delta E   Res. Norm    Conv?
                     1   0.4636943498  -5.74e-06    2.40e-03      N
Iter=10   L=10    Root    EOM Energy     Delta E   Res. Norm    Conv?
                     1   0.4636932975  -1.05e-06    1.22e-03      N
Collapsing to 2 vector(s).
Change in CC3 energy from last iterated value   -0.0108556274
Iter=11   L=2     Root    EOM Energy     Delta E   Res. Norm    Conv?
                     1   0.4637208688   2.76e-05    1.22e-03      N
Iter=12   L=3     Root    EOM Energy     Delta E   Res. Norm    Conv?
                     1   0.4637186294  -2.24e-06    7.95e-04      N
Iter=13   L=4     Root    EOM Energy     Delta E   Res. Norm    Conv?
                     1   0.4637183991  -2.30e-07    4.86e-04      N
Iter=14   L=5     Root    EOM Energy     Delta E   Res. Norm    Conv?
                     1   0.4637187666   3.67e-07    2.25e-04      N
Iter=15   L=6     Root    EOM Energy     Delta E   Res. Norm    Conv?
                     1   0.4637181427  -6.24e-07    1.19e-04      N
Iter=16   L=7     Root    EOM Energy     Delta E   Res. Norm    Conv?
                     1   0.4637181315  -1.11e-08    7.45e-05      N
Iter=17   L=8     Root    EOM Energy     Delta E   Res. Norm    Conv?
                     1   0.4637184406   3.09e-07    5.52e-05      N
Iter=18   L=9     Root    EOM Energy     Delta E   Res. Norm    Conv?
                     1   0.4637185042   6.36e-08    4.69e-05      N
Iter=19   L=10    Root    EOM Energy     Delta E   Res. Norm    Conv?
                     1   0.4637184803  -2.38e-08    3.35e-05      N
Collapsing to 2 vector(s).
Change in CC3 energy from last iterated value    0.0000251828
Iter=20   L=2     Root    EOM Energy     Delta E   Res. Norm    Conv?
                     1   0.4637183855  -9.49e-08    3.31e-05      N
Iter=21   L=3     Root    EOM Energy     Delta E   Res. Norm    Conv?
                     1   0.4637184188   3.34e-08    1.82e-05      N
Iter=22   L=4     Root    EOM Energy     Delta E   Res. Norm    Conv?
                     1   0.4637184381   1.92e-08    9.89e-06      N
Iter=23   L=5     Root    EOM Energy     Delta E   Res. Norm    Conv?
                     1   0.4637184483   1.02e-08    4.59e-06      N
Iter=24   L=6     Root    EOM Energy     Delta E   Res. Norm    Conv?
                     1   0.4637184496   1.26e-09    1.98e-06      N
Iter=25   L=7     Root    EOM Energy     Delta E   Res. Norm    Conv?
                     1   0.4637184488  -7.91e-10    1.02e-06      N
Iter=26   L=8     Root    EOM Energy     Delta E   Res. Norm    Conv?
                     1   0.4637184474  -1.41e-09    5.24e-07      N
Iter=27   L=9     Root    EOM Energy     Delta E   Res. Norm    Conv?
                     1   0.4637184474   6.21e-11    2.88e-07      N
Iter=28   L=10    Root    EOM Energy     Delta E   Res. Norm    Conv?
                     1   0.4637184476   1.46e-10    2.03e-07      N
Collapsing to 2 vector(s).
Change in CC3 energy from last iterated value   -0.0000000328
Iter=29   L=2     Root    EOM Energy     Delta E   Res. Norm    Conv?
                     1   0.4637184477   1.23e-10    2.02e-07      N
Iter=30   L=3     Root    EOM Energy     Delta E   Res. Norm    Conv?
                     1   0.4637184477  -3.64e-11    1.22e-07      N
Iter=31   L=4     Root    EOM Energy     Delta E   Res. Norm    Conv?
                     1   0.4637184477   8.82e-12    6.23e-08      N
Iter=32   L=5     Root    EOM Energy     Delta E   Res. Norm    Conv?
                     1   0.4637184477   1.18e-11    2.63e-08      N
Iter=33   L=6     Root    EOM Energy     Delta E   Res. Norm    Conv?
                     1   0.4637184477  -3.20e-13    1.18e-08      N
Iter=34   L=7     Root    EOM Energy     Delta E   Res. Norm    Conv?
                     1   0.4637184477   4.17e-12    5.83e-09      Y
Collapsing to only 1 vector(s).
Change in CC3 energy from last iterated value    0.0000000001

Procedure converged for 1 root(s).
Energy written to CC_INFO:Etot  -75.4686590331
States per irrep written to CC_INFO.
<R|R> =   1.0000000000000000
EOM CC3 R0 for root 0 =   0.00399445453

Final Energetic Summary for Converged Roots of Irrep B1
                     Excitation Energy              Total Energy
                (eV)     (cm^-1)     (au)             (au)
EOM State 1     12.618   101774.4   0.4637184477   -75.468659033103

Largest components of excited wave function #1:
 RIA (libdpd indices) : (cscf notation)
         1 >   0      :       3a1 >    4a1 :   -0.4931637100
         1 >   2      :       3a1 >    6a1 :    0.1737582382
         1 >   5      :       3a1 >    9a1 :    0.1360533020
         1 >   1      :       3a1 >    5a1 :   -0.1263691083
         1 >   4      :       3a1 >    8a1 :   -0.0512445223
 Ria (libdpd indices) : (cscf notation)
         1 >   0      :       3a1 >    4a1 :    0.5839496219
         1 >   2      :       3a1 >    6a1 :   -0.2341131585
         1 >   5      :       3a1 >    9a1 :    0.1712407201
         1 >   1      :       3a1 >    5a1 :   -0.1380633306
         1 >   4      :       3a1 >    8a1 :   -0.0587296293
 RIjAb (libdpd indices)     : (cscf notation)
        0   1 >   0   0     :    1b1    3a1 >    4a1    1b1 :   -0.3347487699
        0   1 >   2   0     :    1b1    3a1 >    6a1    1b1 :    0.1180937984
        0   1 >   0   1     :    1b1    3a1 >    4a1    2b1 :   -0.0957016545
        0   1 >   5   0     :    1b1    3a1 >    9a1    1b1 :    0.0929011355
        0   1 >   1   0     :    1b1    3a1 >    5a1    1b1 :   -0.0835939631
 RIJAB (libdpd indices)     : (cscf notation)
        0   1 >   3   0     :    1b1    3a1 >    5b1    4a1 :   -0.0198379717
        0   1 >   0   0     :    1b1    3a1 >    2b1    4a1 :   -0.0193830317
        0   1 >   4   0     :    1b2    3a1 >    6b2    4a1 :    0.0189963626
        0   1 >   1   0     :    1b2    3a1 >    3b2    4a1 :    0.0182023902
        0   1 >   0   0     :    1b2    3a1 >    2b2    4a1 :    0.0167736434
 Rijab (libdpd indices)     : (cscf notation)
        0   1 >   4   0     :    1b2    3a1 >    6b2    4a1 :   -0.0240244753
        0   1 >   1   0     :    1b2    3a1 >    3b2    4a1 :    0.0232540417
        0   1 >   0   0     :    1b2    3a1 >    2b2    4a1 :    0.0202807103
        0   1 >   8   0     :    1b2    3a1 >   10b2    4a1 :   -0.0135210689
        1   0 >   5   0     :    3a1    2a1 >    9a1    4a1 :   -0.0095647944

	Putting into environment energy for root of R irrep 1 and root 1.
	Putting into environment CURRENT ENERGY:              -75.4686590331

	Total # of sigma evaluations: 68

*** tstop() called on node16 at Sat Nov  5 10:28:55 2022
Module time:
	user time   =    1693.54 seconds =      28.23 minutes
	system time =     110.82 seconds =       1.85 minutes
	total time  =        451 seconds =       7.52 minutes
Total time:
	user time   =    2157.83 seconds =      35.96 minutes
	system time =     148.36 seconds =       2.47 minutes
	total time  =        581 seconds =       9.68 minutes

    Psi4 stopped on: Saturday, 05 November 2022 10:28AM
    Psi4 wall time for execution: 0:09:40.95

*** Psi4 exiting successfully. Buy a developer a beer!
