
    -----------------------------------------------------------------------
          Psi4: An Open-Source Ab Initio Electronic Structure Package
                               Psi4 1.2 release

                         Git: Rev {HEAD} 9d4a61c 


    R. M. Parrish, L. A. Burns, D. G. A. Smith, A. C. Simmonett,
    A. E. DePrince III, E. G. Hohenstein, U. Bozkaya, A. Yu. Sokolov,
    R. Di Remigio, R. M. Richard, J. F. Gonthier, A. M. James,
    H. R. McAlexander, A. Kumar, M. Saitow, X. Wang, B. P. Pritchard,
    P. Verma, H. F. Schaefer III, K. Patkowski, R. A. King, E. F. Valeev,
    F. A. Evangelista, J. M. Turney, T. D. Crawford, and C. D. Sherrill,
    J. Chem. Theory Comput. 13(7) pp 3185--3197 (2017).
    (doi: 10.1021/acs.jctc.7b00174)


                         Additional Contributions by
    P. Kraus, H. Kruse, M. H. Lechner, M. C. Schieber, and R. A. Shaw

    -----------------------------------------------------------------------


    Psi4 started on: Saturday, 05 November 2022 10:19AM

    Process ID: 15230
    Host:       node16
    PSIDATADIR: /home/qc/psi4conda/share/psi4
    Memory:     500.0 MiB
    Threads:    4
    
  ==> Input File <==

--------------------------------------------------------------------------
#h2o SPECIAL eom-cc3
memory 31950 mb

molecule h2o{
1 2
H        0.0000000000       -1.5533946651       -0.9640405749
O        0.0000000000       -0.0000000000        0.1118169598
H        0.0000000000        1.5533946651       -0.9640405749

units bohr
}
 
set globals {
 reference rohf
 basis aug-cc-pvtz-dk
 freeze_core true
 cachelevel=0
 relativistic x2c
 maxiter=500
 dertype none
 ints_tolerance 20
 roots_per_irrep = [0,0,1,0]
}

set scf d_convergence 12
set ccenergy r_convergence 12
set cceom r_convergence 8

energy('eom-cc3')--------------------------------------------------------------------------

  Memory set to  29.756 GiB by Python driver.

*** tstart() called on node16
*** at Sat Nov  5 10:19:14 2022

   => Loading Basis Set <=

    Name: AUG-CC-PVTZ-DK
    Role: ORBITAL
    Keyword: BASIS
    atoms 1, 3 entry H          line    45 file /home/qc/psi4conda/share/psi4/basis/aug-cc-pvtz-dk.gbs 
    atoms 2    entry O          line   324 file /home/qc/psi4conda/share/psi4/basis/aug-cc-pvtz-dk.gbs 


         ---------------------------------------------------------
                                   SCF
            by Justin Turney, Rob Parrish, Andy Simmonett
                             and Daniel Smith
                             ROHF Reference
                        4 Threads,  30469 MiB Core
         ---------------------------------------------------------

  ==> Geometry <==

    Molecular point group: c2v
    Full point group: C2v

    Geometry (in Bohr), charge = 1, multiplicity = 2:

       Center              X                  Y                   Z               Mass       
    ------------   -----------------  -----------------  -----------------  -----------------
         H            0.000000000000    -1.553394665100    -0.955453075045     1.007825032070
         O           -0.000000000000     0.000000000000     0.120404459655    15.994914619560
         H           -0.000000000000     1.553394665100    -0.955453075045     1.007825032070

  Running in c2v symmetry.

  Rotational constants: A =     29.05460  B =     12.37700  C =      8.67958 [cm^-1]
  Rotational constants: A = 871035.12579  B = 371053.19766  C = 260207.23534 [MHz]
  Nuclear repulsion =    8.789375504027895

  Charge       = 1
  Multiplicity = 2
  Electrons    = 9
  Nalpha       = 5
  Nbeta        = 4

  ==> Algorithm <==

  SCF Algorithm Type is PK.
  DIIS enabled.
  MOM disabled.
  Fractional occupation disabled.
  Guess Type is GWH.
  Energy threshold   = 1.00e-08
  Density threshold  = 1.00e-12
  Integral threshold = 1.00e-20

  ==> Primary Basis <==

  Basis Set: AUG-CC-PVTZ-DK
    Blend: AUG-CC-PVTZ-DK
    Number of shells: 32
    Number of basis function: 92
    Number of Cartesian functions: 105
    Spherical Harmonics?: true
    Max angular momentum: 3

   => Loading Basis Set <=

    Name: (AUG-CC-PVTZ-DK AUX)
    Role: DECON
    Keyword: BASIS_RELATIVISTIC
    atoms 1, 3 entry H          line    45 file /home/qc/psi4conda/share/psi4/basis/aug-cc-pvtz-dk.gbs func decontract
    atoms 2    entry O          line   324 file /home/qc/psi4conda/share/psi4/basis/aug-cc-pvtz-dk.gbs func decontract

  ==> Pre-Iterations <==

   -------------------------------------------------------
    Irrep   Nso     Nmo     Nalpha   Nbeta   Ndocc  Nsocc
   -------------------------------------------------------
     A1        35      35       0       0       0       0
     A2        12      12       0       0       0       0
     B1        18      18       0       0       0       0
     B2        27      27       0       0       0       0
   -------------------------------------------------------
    Total      92      92       5       4       4       1
   -------------------------------------------------------

 OEINTS: Using relativistic (X2C) overlap, kinetic, and potential integrals.
         ------------------------------------------------------------
         Spin-Free X2C Integrals at the One-Electron Level (SFX2C-1e)
                 by Prakash Verma and Francesco A. Evangelista
         ------------------------------------------------------------

  ==> X2C Options <==

    Computational Basis: AUG-CC-PVTZ-DK
    X2C Basis: (AUG-CC-PVTZ-DK AUX)
    The X2C Hamiltonian will be computed in the X2C Basis

    Comparing only 35 out of 45 elements of H_Dirac

    Comparing only 18 out of 20 elements of H_Dirac

    Comparing only 27 out of 31 elements of H_Dirac

    The 1-norm of |H_X2C - H_Dirac| is: 6.760715307777

    WARNING: The X2C and Dirac Hamiltonians have substatially different eigenvalues!
             This is probably caused by the recontraction of the basis set.

  ==> Integral Setup <==

  Using in-core PK algorithm.
   Calculation information:
      Number of atoms:                   3
      Number of AO shells:              32
      Number of primitives:             52
      Number of atomic orbitals:       105
      Number of basis functions:        92

      Integral cutoff                 1.00e-20
      Number of threads:                 4

  Performing in-core PK
  Using 18305562 doubles for integral storage.
  We computed 171364 shell quartets total.
  Whereas there are 139656 unique shell quartets.
    22.70 percent of shell quartets recomputed by reordering.

  ==> DiskJK: Disk-Based J/K Matrices <==

    J tasked:                  Yes
    K tasked:                  Yes
    wK tasked:                  No
    Memory (MB):             22852
    Schwarz Cutoff:          1E-20

    OpenMP threads:              4

  Minimum eigenvalue in the overlap matrix is 4.0690877672E-04.
  Using Symmetric Orthogonalization.

  SCF Guess: Generalized Wolfsberg-Helmholtz.

  ==> Iterations <==

                        Total Energy        Delta E     RMS |[F,P]|

   @ROHF iter   1:   -69.34443048316430   -6.93444e+01   1.20545e-01 
   @ROHF iter   2:   -75.57223583086272   -6.22781e+00   1.33730e-02 DIIS
   @ROHF iter   3:   -75.69035713562329   -1.18121e-01   3.64240e-03 DIIS
   @ROHF iter   4:   -75.70258722923126   -1.22301e-02   1.40822e-03 DIIS
   @ROHF iter   5:   -75.70478835396162   -2.20112e-03   4.45545e-04 DIIS
   @ROHF iter   6:   -75.70497673544659   -1.88381e-04   7.36036e-05 DIIS
   @ROHF iter   7:   -75.70498587688115   -9.14143e-06   1.38208e-05 DIIS
   @ROHF iter   8:   -75.70498612035041   -2.43469e-07   1.72259e-06 DIIS
   @ROHF iter   9:   -75.70498612492446   -4.57405e-09   3.56871e-07 DIIS
   @ROHF iter  10:   -75.70498612505162   -1.27159e-10   7.85023e-08 DIIS
   @ROHF iter  11:   -75.70498612505807   -6.45173e-12   9.91068e-09 DIIS
   @ROHF iter  12:   -75.70498612505810   -2.84217e-14   1.31788e-09 DIIS
   @ROHF iter  13:   -75.70498612505816   -5.68434e-14   1.93908e-10 DIIS
   @ROHF iter  14:   -75.70498612505818   -2.84217e-14   3.15510e-11 DIIS
   @ROHF iter  15:   -75.70498612505816    2.84217e-14   6.04195e-12 DIIS
   @ROHF iter  16:   -75.70498612505813    2.84217e-14   9.74281e-13 DIIS

  ==> Post-Iterations <==

    Orbital Energies [Eh]
    ---------------------

    Doubly Occupied:                                                      

       1A1   -21.117364     2A1    -1.800024     1B2    -1.177011  
       3A1    -1.045932  

    Singly Occupied:                                                      

       1B1    -0.685706  

    Virtual:                                                              

       4A1    -0.181055     2B2    -0.116666     5A1    -0.060711  
       2B1    -0.057654     6A1    -0.042727     3B2    -0.026826  
       4B2     0.010574     7A1     0.017634     1A2     0.036140  
       3B1     0.071105     8A1     0.073474     5B2     0.162530  
       9A1     0.177827     6B2     0.195327     7B2     0.323604  
      10A1     0.346359    11A1     0.409341     4B1     0.421979  
       2A2     0.422287    12A1     0.515982     5B1     0.554878  
      13A1     0.583473     8B2     0.596780     6B1     0.608712  
       3A2     0.622557     9B2     0.661246    14A1     0.670601  
      15A1     0.728542    10B2     0.743019     7B1     0.749307  
      11B2     0.829367    16A1     0.858707     4A2     0.869640  
      12B2     0.965015     5A2     1.166466     8B1     1.226803  
      17A1     1.252358    13B2     1.399408    18A1     1.441109  
      14B2     1.585459    19A1     1.682336     9B1     1.830707  
       6A2     1.899346    20A1     1.942537    21A1     1.977098  
      10B1     1.999969    15B2     2.050446    22A1     2.094058  
      11B1     2.309450    23A1     2.312756    16B2     2.325819  
       7A2     2.449702    17B2     2.500417    18B2     3.157668  
      24A1     3.309994     8A2     3.574378    12B1     3.584856  
      19B2     3.768036    25A1     3.780440    13B1     3.902400  
      14B1     3.967015     9A2     3.971812    20B2     4.042031  
      26A1     4.094475    27A1     4.194976    21B2     4.262182  
      22B2     4.602861    10A2     4.638861    28A1     4.730575  
      23B2     4.846881    15B1     4.913635    29A1     5.233886  
      30A1     5.585523    24B2     6.071978    16B1     6.201144  
      31A1     6.282824    17B1     6.606205    18B1     6.705072  
      11A2     6.705342    32A1     6.764034    12A2     6.853538  
      25B2     6.859793    33A1     6.971837    26B2     7.292889  
      34A1     7.415587    27B2     8.071423    35A1    14.128918  

    Final Occupation by Irrep:
             A1    A2    B1    B2 
    DOCC [     3,    0,    0,    1 ]
    SOCC [     0,    0,    1,    0 ]

  Energy converged.

  @ROHF Final Energy:   -75.70498612505813

   => Energetics <=

    Nuclear Repulsion Energy =              8.7893755040278947
    One-Electron Energy =                -117.6005848454971385
    Two-Electron Energy =                  33.1062232164111236
    Total Energy =                        -75.7049861250581131



Properties will be evaluated at   0.000000,   0.000000,   0.000000 [a0]

Properties computed using the SCF density matrix

  Nuclear Dipole Moment: [e a0]
     X:     0.0000      Y:     0.0000      Z:    -0.9477

  Electronic Dipole Moment: [e a0]
     X:     0.0000      Y:     0.0000      Z:    -0.0069

  Dipole Moment: [e a0]
     X:     0.0000      Y:     0.0000      Z:    -0.9546     Total:     0.9546

  Dipole Moment: [D]
     X:     0.0000      Y:     0.0000      Z:    -2.4263     Total:     2.4263


*** tstop() called on node16 at Sat Nov  5 10:19:16 2022
Module time:
	user time   =       5.05 seconds =       0.08 minutes
	system time =       0.11 seconds =       0.00 minutes
	total time  =          2 seconds =       0.03 minutes
Total time:
	user time   =       5.05 seconds =       0.08 minutes
	system time =       0.11 seconds =       0.00 minutes
	total time  =          2 seconds =       0.03 minutes
   => Loading Basis Set <=

    Name: (AUG-CC-PVTZ-DK AUX)
    Role: DECON
    Keyword: BASIS_RELATIVISTIC
    atoms 1, 3 entry H          line    45 file /home/qc/psi4conda/share/psi4/basis/aug-cc-pvtz-dk.gbs func decontract
    atoms 2    entry O          line   324 file /home/qc/psi4conda/share/psi4/basis/aug-cc-pvtz-dk.gbs func decontract

 MINTS: Wrapper to libmints.
   by Justin Turney

   Calculation information:
      Number of threads:                 4
      Number of atoms:                   3
      Number of AO shells:              32
      Number of SO shells:              23
      Number of primitives:             52
      Number of atomic orbitals:       105
      Number of basis functions:        92

      Number of irreps:                  4
      Integral cutoff                 1.00e-20
      Number of functions per irrep: [  35   12   18   27 ]

 OEINTS: Using relativistic (X2C) overlap, kinetic, and potential integrals.
         ------------------------------------------------------------
         Spin-Free X2C Integrals at the One-Electron Level (SFX2C-1e)
                 by Prakash Verma and Francesco A. Evangelista
         ------------------------------------------------------------

  ==> X2C Options <==

    Computational Basis: AUG-CC-PVTZ-DK
    X2C Basis: (AUG-CC-PVTZ-DK AUX)
    The X2C Hamiltonian will be computed in the X2C Basis

    Comparing only 35 out of 45 elements of H_Dirac

    Comparing only 18 out of 20 elements of H_Dirac

    Comparing only 27 out of 31 elements of H_Dirac

    The 1-norm of |H_X2C - H_Dirac| is: 6.760715307777

    WARNING: The X2C and Dirac Hamiltonians have substatially different eigenvalues!
             This is probably caused by the recontraction of the basis set.

 OEINTS: Overlap, kinetic, potential, dipole, and quadrupole integrals
         stored in file 35.

      Computing two-electron integrals...done
      Computed 2249808 non-zero two-electron integrals.
        Stored in file 33.


*** tstart() called on node16
*** at Sat Nov  5 10:19:17 2022


	Wfn Parameters:
	--------------------
	Wavefunction         = CC3
	Number of irreps     = 4
	Number of MOs        = 92
	Number of active MOs = 91
	AO-Basis             = NONE
	Semicanonical        = true
	Reference            = ROHF changed to UHF for semicanonical orbitals
	Print Level          = 1

	IRREP	# MOs	# FZDC	# DOCC	# SOCC	# VIRT	# FZVR
	-----	-----	------	------	------	------	------
	 A1	   35	    1	    2	    0	    32	    0
	 A2	   12	    0	    0	    0	    12	    0
	 B1	   18	    0	    0	    1	    17	    0
	 B2	   27	    0	    1	    0	    26	    0
	Transforming integrals...
	IWL integrals will be deleted.
	(OO|OO)...
	Presorting SO-basis two-electron integrals.
	Sorting File: SO Ints (nn|nn) nbuckets = 1
	Transforming the one-electron integrals and constructing Fock matrices
	Starting AA/AB first half-transformation.
	Sorting AA/AB half-transformed integrals.
	Starting BB first half-transformation.
	Sorting BB half-transformed integrals.
	First half integral transformation complete.
	Starting AA second half-transformation.
	Starting AB second half-transformation.
	Starting BB second half-transformation.
	Two-electron integral transformation complete.
	(OO|OV)...
	Starting AA second half-transformation.
	Starting AB second half-transformation.
	Starting BB second half-transformation.
	Two-electron integral transformation complete.
	(OO|VV)...
	Starting AA second half-transformation.
	Starting AB second half-transformation.
	Starting BB second half-transformation.
	Two-electron integral transformation complete.
	(OV|OO)...
	Starting AA/AB first half-transformation.
	Sorting AA/AB half-transformed integrals.
	Starting BB first half-transformation.
	Sorting BB half-transformed integrals.
	First half integral transformation complete.
	Starting AA second half-transformation.
	Starting AB second half-transformation.
	Starting BB second half-transformation.
	Two-electron integral transformation complete.
	(OV|OV)...
	Starting AA second half-transformation.
	Starting AB second half-transformation.
	Starting BB second half-transformation.
	Two-electron integral transformation complete.
	(OV|VV)...
	Starting AA second half-transformation.
	Starting AB second half-transformation.
	Starting BB second half-transformation.
	Two-electron integral transformation complete.
	(VV|OO)...
	Starting AA/AB first half-transformation.
	Sorting AA/AB half-transformed integrals.
	Starting BB first half-transformation.
	Sorting BB half-transformed integrals.
	First half integral transformation complete.
	Starting AA second half-transformation.
	Starting AB second half-transformation.
	Starting BB second half-transformation.
	Two-electron integral transformation complete.
	(VV|OV)...
	Starting AA second half-transformation.
	Starting AB second half-transformation.
	Starting BB second half-transformation.
	Two-electron integral transformation complete.
	(VV|VV)...
	Starting AA second half-transformation.
	Starting AB second half-transformation.
	Starting BB second half-transformation.
	Two-electron integral transformation complete.
	Frozen core energy     =    -61.26793840975019

	Size of irrep 0 of <AB|CD> integrals:      1.047 (MW) /      8.372 (MB)
	Size of irrep 1 of <AB|CD> integrals:      0.682 (MW) /      5.458 (MB)
	Size of irrep 2 of <AB|CD> integrals:      0.733 (MW) /      5.862 (MB)
	Size of irrep 3 of <AB|CD> integrals:      1.073 (MW) /      8.586 (MB)
	Total:                                     3.535 (MW) /     28.279 (MB)

	Size of irrep 0 of <ab|cd> integrals:      1.082 (MW) /      8.653 (MB)
	Size of irrep 1 of <ab|cd> integrals:      0.726 (MW) /      5.807 (MB)
	Size of irrep 2 of <ab|cd> integrals:      0.789 (MW) /      6.308 (MB)
	Size of irrep 3 of <ab|cd> integrals:      1.098 (MW) /      8.786 (MB)
	Total:                                     3.694 (MW) /     29.555 (MB)

	Size of irrep 0 of <Ab|Cd> integrals:      4.622 (MW) /     36.980 (MB)
	Size of irrep 1 of <Ab|Cd> integrals:      2.816 (MW) /     22.525 (MB)
	Size of irrep 2 of <Ab|Cd> integrals:      3.042 (MW) /     24.332 (MB)
	Size of irrep 3 of <Ab|Cd> integrals:      4.343 (MW) /     34.744 (MB)
	Total:                                    14.823 (MW) /    118.582 (MB)

	Size of irrep 0 of <IA|BC> integrals:      0.228 (MW) /      1.826 (MB)
	Size of irrep 1 of <IA|BC> integrals:      0.111 (MW) /      0.885 (MB)
	Size of irrep 2 of <IA|BC> integrals:      0.134 (MW) /      1.068 (MB)
	Size of irrep 3 of <IA|BC> integrals:      0.199 (MW) /      1.591 (MB)
	Total:                                     0.671 (MW) /      5.371 (MB)

	Size of irrep 0 of <ia|bc> integrals:      0.195 (MW) /      1.561 (MB)
	Size of irrep 1 of <ia|bc> integrals:      0.072 (MW) /      0.573 (MB)
	Size of irrep 2 of <ia|bc> integrals:      0.085 (MW) /      0.682 (MB)
	Size of irrep 3 of <ia|bc> integrals:      0.176 (MW) /      1.409 (MB)
	Total:                                     0.528 (MW) /      4.224 (MB)

	Size of irrep 0 of <Ia|Bc> integrals:      0.232 (MW) /      1.858 (MB)
	Size of irrep 1 of <Ia|Bc> integrals:      0.114 (MW) /      0.913 (MB)
	Size of irrep 2 of <Ia|Bc> integrals:      0.140 (MW) /      1.116 (MB)
	Size of irrep 3 of <Ia|Bc> integrals:      0.200 (MW) /      1.601 (MB)
	Total:                                     0.686 (MW) /      5.487 (MB)

	Size of irrep 0 of <iA|bC> integrals:      0.194 (MW) /      1.548 (MB)
	Size of irrep 1 of <iA|bC> integrals:      0.069 (MW) /      0.550 (MB)
	Size of irrep 2 of <iA|bC> integrals:      0.080 (MW) /      0.642 (MB)
	Size of irrep 3 of <iA|bC> integrals:      0.175 (MW) /      1.400 (MB)
	Total:                                     0.518 (MW) /      4.141 (MB)

	Size of irrep 0 of tIjAb amplitudes:       0.011 (MW) /      0.086 (MB)
	Size of irrep 1 of tIjAb amplitudes:       0.002 (MW) /      0.013 (MB)
	Size of irrep 2 of tIjAb amplitudes:       0.003 (MW) /      0.028 (MB)
	Size of irrep 3 of tIjAb amplitudes:       0.008 (MW) /      0.067 (MB)
	Total:                                     0.024 (MW) /      0.194 (MB)

	Nuclear Rep. energy          =      8.78937550402789
	SCF energy                   =    -75.70498612505813
	One-electron energy          =    -37.29947127917958
	Two-electron (AA) energy     =      3.70092041835197
	Two-electron (BB) energy     =      1.75308231895929
	Two-electron (AB) energy     =      8.61904532253248
	Two-electron energy          =     14.07304805984374
	Reference energy             =    -75.70498612505813

*** tstop() called on node16 at Sat Nov  5 10:19:20 2022
Module time:
	user time   =       2.18 seconds =       0.04 minutes
	system time =       0.91 seconds =       0.02 minutes
	total time  =          3 seconds =       0.05 minutes
Total time:
	user time   =       8.98 seconds =       0.15 minutes
	system time =       1.08 seconds =       0.02 minutes
	total time  =          6 seconds =       0.10 minutes

*** tstart() called on node16
*** at Sat Nov  5 10:19:20 2022

            **************************
            *                        *
            *        CCENERGY        *
            *                        *
            **************************

    Nuclear Rep. energy (wfn)     =    8.789375504027895
    SCF energy          (wfn)     =  -75.704986125058127
    Reference energy    (file100) =  -75.704986125058127

    Input parameters:
    -----------------
    Wave function   =     CC3
    Reference wfn   =     ROHF changed to UHF for Semicanonical Orbitals
    Brueckner       =     No
    Memory (Mbytes) =     31950.0
    Maxiter         =    500
    R_Convergence   =     1.0e-12
    E_Convergence   =     1.0e-06
    Restart         =     Yes
    DIIS            =     Yes
    AO Basis        =     NONE
    ABCD            =     NEW
    Cache Level     =     0
    Cache Type      =     LRU
    Print Level     =     1
    Num. of threads =     4
    # Amps to Print =     10
    Print MP2 Amps? =     No
    Analyze T2 Amps =     No
    Print Pair Ener =     No
    Local CC        =     No
    T3 Ws incore    =     No
    SCS-MP2         =     False
    SCSN-MP2        =     False
    SCS-CCSD        =     False

MP2 correlation energy -0.2069966349693218
                Solving CC Amplitude Equations
                ------------------------------
  Iter             Energy              RMS        T1Diag      D1Diag    New D1Diag    D2Diag
  ----     ---------------------    ---------   ----------  ----------  ----------   --------
     0        -0.207055036124702    0.000e+00    0.013500    0.000000    0.000000    0.000000
     1        -0.222020671772497    3.324e-02    0.016629    0.000000    0.000000    0.000000
     2        -0.227014335768499    1.209e-02    0.018347    0.000000    0.000000    0.000000
     3        -0.227308392442388    4.088e-03    0.018905    0.000000    0.000000    0.000000
     4        -0.227319824542639    1.772e-03    0.018971    0.000000    0.000000    0.000000
     5        -0.227355552142035    7.326e-04    0.018942    0.000000    0.000000    0.000000
     6        -0.227359032407341    2.424e-04    0.018908    0.000000    0.000000    0.000000
     7        -0.227361243620489    9.339e-05    0.018898    0.000000    0.000000    0.000000
     8        -0.227361078901490    3.281e-05    0.018896    0.000000    0.000000    0.000000
     9        -0.227361042513951    1.098e-05    0.018896    0.000000    0.000000    0.000000
    10        -0.227361160983422    4.025e-06    0.018897    0.000000    0.000000    0.000000
    11        -0.227361096962930    1.355e-06    0.018897    0.000000    0.000000    0.000000
    12        -0.227361079499707    4.078e-07    0.018897    0.000000    0.000000    0.000000
    13        -0.227361069134515    1.122e-07    0.018897    0.000000    0.000000    0.000000
    14        -0.227361068727101    3.352e-08    0.018897    0.000000    0.000000    0.000000
    15        -0.227361068657771    1.279e-08    0.018897    0.000000    0.000000    0.000000
    16        -0.227361068572341    5.789e-09    0.018897    0.000000    0.000000    0.000000
    17        -0.227361068467087    2.609e-09    0.018897    0.000000    0.000000    0.000000
    18        -0.227361068403675    1.080e-09    0.018897    0.000000    0.000000    0.000000
    19        -0.227361068394261    4.365e-10    0.018897    0.000000    0.000000    0.000000
    20        -0.227361068395497    1.538e-10    0.018897    0.000000    0.000000    0.000000
    21        -0.227361068394748    5.323e-11    0.018897    0.000000    0.000000    0.000000
    22        -0.227361068394830    1.865e-11    0.018897    0.000000    0.000000    0.000000
    23        -0.227361068394801    5.528e-12    0.018897    0.000000    0.000000    0.000000
    24        -0.227361068394835    1.798e-12    0.018897    0.000000    0.000000    0.000000
    25        -0.227361068394842    5.190e-13    0.018897    0.000000    0.000000    0.000000

    Iterations converged.


    Largest TIA Amplitudes:
              0  14         0.0096177596
              0   0         0.0088624086
              0  15         0.0084823057
              0   6         0.0084040914
              0  17        -0.0078272622
              0   5        -0.0078229260
              0   7         0.0076226364
              0   2        -0.0073449650
              2  44        -0.0061765090
              1  17         0.0060020718

    Largest Tia Amplitudes:
              1   1         0.0108040720
              2  63         0.0104307126
              0   0        -0.0100297582
              0   2         0.0097865581
              2  62         0.0091826120
              2  66        -0.0086122626
              0  17         0.0081958682
              1   0        -0.0080858387
              0   7         0.0080491539
              1   4         0.0079892964

    Largest TIJAB Amplitudes:
      2   1  47   9        -0.0083291167
      3   2  33   6         0.0079511173
      3   2  65  47         0.0079496649
      2   1  51  17         0.0078724308
      3   1  65   9         0.0071176215
      3   2  62  47        -0.0070148708
      2   1  46   7        -0.0069691087
      2   1  48   9        -0.0069289420
      3   2  61  47        -0.0067930133
      2   1  44   9         0.0066660963

    Largest Tijab Amplitudes:
      1   0  47  44        -0.0081207472
      2   0  44  33         0.0077406911
      1   0  52  44         0.0075084191
      2   1  66   9         0.0071954198
      2   1  63   6        -0.0070260636
      2   1  66   6         0.0067580618
      2   1  67   6        -0.0064259634
      2   1  62   9        -0.0063640328
      2   1  66   1         0.0061355378
      2   0  44  36         0.0060611316

    Largest TIjAb Amplitudes:
      3   2  65  66        -0.0191178425
      1   1   9   9        -0.0179710468
      3   2  62  66         0.0173232363
      3   2  65  63         0.0172047804
      2   0   0  44        -0.0166499850
      3   2  62  63        -0.0160269528
      2   0   6  44        -0.0159450720
      2   0  14  44        -0.0153436332
      3   2  61  66         0.0152281105
      1   0  51  44         0.0150979223

    SCF energy       (wfn)                    =  -75.704986125058127
    Reference energy (file100)                =  -75.704986125058127

    Opposite-spin MP2 correlation energy      =   -0.158019622340713
    Same-spin MP2 correlation energy          =   -0.045371869142575
    MP2 correlation energy                    =   -0.206996634969322
      * MP2 total energy                      =  -75.911982760027456
    CC3 correlation energy                    =   -0.227361068394842
      * CC3 total energy                      =  -75.932347193452969


*** tstop() called on node16 at Sat Nov  5 10:21:18 2022
Module time:
	user time   =     434.25 seconds =       7.24 minutes
	system time =      34.05 seconds =       0.57 minutes
	total time  =        118 seconds =       1.97 minutes
Total time:
	user time   =     443.23 seconds =       7.39 minutes
	system time =      35.13 seconds =       0.59 minutes
	total time  =        124 seconds =       2.07 minutes

*** tstart() called on node16
*** at Sat Nov  5 10:21:18 2022


			**************************
			*                        *
			*         CCHBAR         *
			*                        *
			**************************

Dots of (HeT1)c in names "CC3 Wxxx" in CC3_HET1 
Wamef terms
	<WAMEF|WAMEF> =   13.2943042471
	<Wamef|Wamef> =   10.8468510482
	<WAmEf|WAmEf> =    9.3086692967
	<WaMeF|WaMeF> =   12.6517305365
Wmnie terms
	<WMNIE (M>N,IE)|WMNIE> =    0.7442913234
	<Wmnie (m>n,ie)|Wmnie> =    0.3279725150
	<WMnIe (Mn,Ie)|WMnIe> =    0.7252614594
	<WmNiE (mN,iE)|WmNiE> =    0.6139293579
	<WMNIE(M>N,EI)|WMNIE(M>N,EI)> =    0.7442913234
	<Wmnie(m>n,ei)|Wmnie(m>n,ei)> =    0.3279725150
	<WMnIe(Mn,eI)|WMnIe(Mn,eI)> =    0.7252614594
	<WmNiE(mN,Ei)|WmNiE(mN,Ei)> =    0.6139293579
Doing Wmnij terms.
	<WMNIJ (M>N,I>J)|WMNIJ> =    9.2286529166
	<Wmnij (m>n,i>j)|Wmnij> =    4.0471062140
	<WMnIj (Mn,Ij)|WMnIj> =    6.3917119704
Doing Wmbij terms.
	<WMBIJ (MB,I>J)|WMBIJ> =    0.7496440132
	<WMBIJ (I>J,MB)|WMBIJ> =    0.7496440132
	<Wmbij (mb,i>j)|Wmbij> =    0.3338061272
	<Wmbij (i>j,mb)|Wmbij> =    0.3338061272
	<WMbIj (Mb,Ij)|WMbIj> =    0.7287309249
	<WMbIj (Ij,Mb)|WMbIj> =    0.7287309249
	<WmBiJ (mB,iJ)|WmBiJ> =    0.6172861716
	<WmBiJ (iJ,mB)|WmBiJ> =    0.6172861716
Doing Wmbej terms.
	<WMBEJ (all ME,JB)|WMBEJ> =   81.8558835233
	<Wmbej|Wmbej> =   61.9631417138
	<WMbEj|WMbEj> =    1.0296512530
	<WmBeJ|WmBeJ> =    1.0391577889
	<WMbeJ|WMbeJ> =   94.8787135162
	<WmBEj|WmBEj> =   67.9509327066
Doing Wabei terms.
	<WABEI (IE,B>A) |WABEI> =   13.3477839126
	<Wabei (ie,b>a)|Wabei> =   10.9456560462
	<WAbEi (iE,bA)|WAbEi> =    9.3835699149
	<WAbEi (iE,Ba)|WAbEi> =   12.6865437074

*** tstop() called on node16 at Sat Nov  5 10:21:19 2022
Module time:
	user time   =       3.28 seconds =       0.05 minutes
	system time =       0.54 seconds =       0.01 minutes
	total time  =          1 seconds =       0.02 minutes
Total time:
	user time   =     446.51 seconds =       7.44 minutes
	system time =      35.67 seconds =       0.59 minutes
	total time  =        125 seconds =       2.08 minutes

*** tstart() called on node16
*** at Sat Nov  5 10:21:19 2022


	**********************************************************
	*  CCEOM: An Equation of Motion Coupled Cluster Program  *
	**********************************************************

	Nuclear Rep. energy (wfn)     =    8.789375504027895
	SCF energy          (wfn)     =  -75.704986125058127
	Reference energy    (file100) =  -75.704986125058127
	CC3 energy          (file100) =   -0.227361068394842

	Input parameters:
	-----------------
	Reference wfn   = ROHF changed to UHF for Semicanonical Orbitals
	Reference EOM wfn=     UHF
	Memory (Mbytes) =  31950.0
	ABCD            =     NEW
	Cache Level     =    0
	Cache Type      =     LRU
	T3 Ws incore  =      No
	Num. of threads =     4
	Local CC        =     No


	CCEOM parameters:
	-----------------
	States sought per irrep     = A1 0, A2 0, B1 1, B2 0,
	Max. number of iterations   =   500
	Vectors stored per root     =    12
	Print HbarSS iterations?    =     0
	Excitation range for HBarSS =     2
	Eigenvalue tolerance        = 1.0e-06
	Eigenvalue toleranceSS      = 1.0e-06
	Residual vector tolerance   = 1.0e-08
	Residual vector toleranceSS = 1.0e-06
	Complex tolerance           = 1.0e-12
	Root for properties         =     1
	Sym of state for properties =     A1
	Guess vectors taken from    = SINGLES
	Restart EOM CC3             = NO
	Collapse with last vector   = YES


Symmetry of ground state: B1
Symmetry of excited state: B1
Symmetry of right eigenvector: A1
Obtaining initial guess from singles-singles block of Hbar...Done.

Iter=1    L=1     Root    EOM Energy     Delta E   Res. Norm    Conv?
                     1   0.5768152732   5.77e-01    5.15e-01      N
Iter=2    L=2     Root    EOM Energy     Delta E   Res. Norm    Conv?
                     1   0.4847319308  -9.21e-02    9.74e-02      N
Iter=3    L=3     Root    EOM Energy     Delta E   Res. Norm    Conv?
                     1   0.4785949419  -6.14e-03    6.30e-02      N
Iter=4    L=4     Root    EOM Energy     Delta E   Res. Norm    Conv?
                     1   0.4754537005  -3.14e-03    4.58e-02      N
Iter=5    L=5     Root    EOM Energy     Delta E   Res. Norm    Conv?
                     1   0.4742568534  -1.20e-03    2.68e-02      N
Iter=6    L=6     Root    EOM Energy     Delta E   Res. Norm    Conv?
                     1   0.4738269956  -4.30e-04    1.35e-02      N
Iter=7    L=7     Root    EOM Energy     Delta E   Res. Norm    Conv?
                     1   0.4736886444  -1.38e-04    8.73e-03      N
Iter=8    L=8     Root    EOM Energy     Delta E   Res. Norm    Conv?
                     1   0.4736138916  -7.48e-05    6.14e-03      N
Iter=9    L=9     Root    EOM Energy     Delta E   Res. Norm    Conv?
                     1   0.4735790968  -3.48e-05    3.80e-03      N
Iter=10   L=10    Root    EOM Energy     Delta E   Res. Norm    Conv?
                     1   0.4735682623  -1.08e-05    3.01e-03      N
Iter=11   L=11    Root    EOM Energy     Delta E   Res. Norm    Conv?
                     1   0.4735580144  -1.02e-05    2.42e-03      N
Iter=12   L=12    Root    EOM Energy     Delta E   Res. Norm    Conv?
                     1   0.4735542502  -3.76e-06    1.37e-03      N
Iter=13   L=2     Root    EOM Energy     Delta E   Res. Norm    Conv?
                     1   0.4735542502  -3.89e-16    1.37e-03      N
Iter=14   L=3     Root    EOM Energy     Delta E   Res. Norm    Conv?
                     1   0.4735534405  -8.10e-07    6.69e-04      N
Iter=15   L=4     Root    EOM Energy     Delta E   Res. Norm    Conv?
                     1   0.4735536568   2.16e-07    3.97e-04      N
Iter=16   L=5     Root    EOM Energy     Delta E   Res. Norm    Conv?
                     1   0.4735529276  -7.29e-07    2.20e-04      N
Iter=17   L=6     Root    EOM Energy     Delta E   Res. Norm    Conv?
                     1   0.4735525429  -3.85e-07    9.24e-05      N
Iter=18   L=7     Root    EOM Energy     Delta E   Res. Norm    Conv?
                     1   0.4735526426   9.97e-08    3.56e-05      N
Iter=19   L=8     Root    EOM Energy     Delta E   Res. Norm    Conv?
                     1   0.4735526036  -3.90e-08    1.42e-05      N
Iter=20   L=9     Root    EOM Energy     Delta E   Res. Norm    Conv?
                     1   0.4735525991  -4.55e-09    6.37e-06      N
Iter=21   L=10    Root    EOM Energy     Delta E   Res. Norm    Conv?
                     1   0.4735525975  -1.57e-09    2.62e-06      N
Iter=22   L=11    Root    EOM Energy     Delta E   Res. Norm    Conv?
                     1   0.4735526000   2.50e-09    9.74e-07      N
Iter=23   L=12    Root    EOM Energy     Delta E   Res. Norm    Conv?
                     1   0.4735526038   3.81e-09    4.31e-07      N
Iter=24   L=2     Root    EOM Energy     Delta E   Res. Norm    Conv?
                     1   0.4735526038  -1.35e-12    4.30e-07      N
Iter=25   L=3     Root    EOM Energy     Delta E   Res. Norm    Conv?
                     1   0.4735526045   6.35e-10    2.91e-07      N
Iter=26   L=4     Root    EOM Energy     Delta E   Res. Norm    Conv?
                     1   0.4735526048   3.31e-10    2.05e-07      N
Iter=27   L=5     Root    EOM Energy     Delta E   Res. Norm    Conv?
                     1   0.4735526055   6.59e-10    1.34e-07      N
Iter=28   L=6     Root    EOM Energy     Delta E   Res. Norm    Conv?
                     1   0.4735526057   2.07e-10    8.51e-08      N
Iter=29   L=7     Root    EOM Energy     Delta E   Res. Norm    Conv?
                     1   0.4735526059   2.00e-10    5.57e-08      N
Iter=30   L=8     Root    EOM Energy     Delta E   Res. Norm    Conv?
                     1   0.4735526059   9.99e-12    3.82e-08      N
Iter=31   L=9     Root    EOM Energy     Delta E   Res. Norm    Conv?
                     1   0.4735526059  -2.11e-11    2.39e-08      N
Iter=32   L=10    Root    EOM Energy     Delta E   Res. Norm    Conv?
                     1   0.4735526059   3.13e-12    1.47e-08      N
Iter=33   L=11    Root    EOM Energy     Delta E   Res. Norm    Conv?
                     1   0.4735526058  -3.02e-11    9.40e-09      Y
Completed EOM_CCSD
Collapsing to only 1 vector(s).
Copying root 1 to CC3_MISC file.
Setting initial CC3 eigenvalue to    0.4735526058
Iter=1    L=1     Root    EOM Energy     Delta E   Res. Norm    Conv?
                     1   0.4682715927  -5.28e-03    4.35e-02      N
Iter=2    L=2     Root    EOM Energy     Delta E   Res. Norm    Conv?
                     1   0.4667241397  -1.55e-03    2.69e-02      N
Iter=3    L=3     Root    EOM Energy     Delta E   Res. Norm    Conv?
                     1   0.4652769148  -1.45e-03    4.25e-02      N
Iter=4    L=4     Root    EOM Energy     Delta E   Res. Norm    Conv?
                     1   0.4634662203  -1.81e-03    2.50e-02      N
Iter=5    L=5     Root    EOM Energy     Delta E   Res. Norm    Conv?
                     1   0.4630736645  -3.93e-04    1.30e-02      N
Iter=6    L=6     Root    EOM Energy     Delta E   Res. Norm    Conv?
                     1   0.4629410168  -1.33e-04    1.25e-02      N
Iter=7    L=7     Root    EOM Energy     Delta E   Res. Norm    Conv?
                     1   0.4627893452  -1.52e-04    9.43e-03      N
Iter=8    L=8     Root    EOM Energy     Delta E   Res. Norm    Conv?
                     1   0.4627059323  -8.34e-05    5.34e-03      N
Iter=9    L=9     Root    EOM Energy     Delta E   Res. Norm    Conv?
                     1   0.4627001449  -5.79e-06    2.41e-03      N
Iter=10   L=10    Root    EOM Energy     Delta E   Res. Norm    Conv?
                     1   0.4626990672  -1.08e-06    1.23e-03      N
Collapsing to 2 vector(s).
Change in CC3 energy from last iterated value   -0.0108535386
Iter=11   L=2     Root    EOM Energy     Delta E   Res. Norm    Conv?
                     1   0.4627266068   2.75e-05    1.23e-03      N
Iter=12   L=3     Root    EOM Energy     Delta E   Res. Norm    Conv?
                     1   0.4627243341  -2.27e-06    8.04e-04      N
Iter=13   L=4     Root    EOM Energy     Delta E   Res. Norm    Conv?
                     1   0.4627241103  -2.24e-07    4.86e-04      N
Iter=14   L=5     Root    EOM Energy     Delta E   Res. Norm    Conv?
                     1   0.4627244665   3.56e-07    2.23e-04      N
Iter=15   L=6     Root    EOM Energy     Delta E   Res. Norm    Conv?
                     1   0.4627238460  -6.21e-07    1.19e-04      N
Iter=16   L=7     Root    EOM Energy     Delta E   Res. Norm    Conv?
                     1   0.4627238371  -8.95e-09    7.46e-05      N
Iter=17   L=8     Root    EOM Energy     Delta E   Res. Norm    Conv?
                     1   0.4627241493   3.12e-07    5.59e-05      N
Iter=18   L=9     Root    EOM Energy     Delta E   Res. Norm    Conv?
                     1   0.4627242131   6.39e-08    4.73e-05      N
Iter=19   L=10    Root    EOM Energy     Delta E   Res. Norm    Conv?
                     1   0.4627241899  -2.32e-08    3.34e-05      N
Collapsing to 2 vector(s).
Change in CC3 energy from last iterated value    0.0000251227
Iter=20   L=2     Root    EOM Energy     Delta E   Res. Norm    Conv?
                     1   0.4627240954  -9.46e-08    3.30e-05      N
Iter=21   L=3     Root    EOM Energy     Delta E   Res. Norm    Conv?
                     1   0.4627241291   3.37e-08    1.82e-05      N
Iter=22   L=4     Root    EOM Energy     Delta E   Res. Norm    Conv?
                     1   0.4627241485   1.95e-08    9.87e-06      N
Iter=23   L=5     Root    EOM Energy     Delta E   Res. Norm    Conv?
                     1   0.4627241585   9.95e-09    4.59e-06      N
Iter=24   L=6     Root    EOM Energy     Delta E   Res. Norm    Conv?
                     1   0.4627241596   1.12e-09    2.00e-06      N
Iter=25   L=7     Root    EOM Energy     Delta E   Res. Norm    Conv?
                     1   0.4627241587  -8.79e-10    1.04e-06      N
Iter=26   L=8     Root    EOM Energy     Delta E   Res. Norm    Conv?
                     1   0.4627241573  -1.43e-09    5.40e-07      N
Iter=27   L=9     Root    EOM Energy     Delta E   Res. Norm    Conv?
                     1   0.4627241574   7.34e-11    3.03e-07      N
Iter=28   L=10    Root    EOM Energy     Delta E   Res. Norm    Conv?
                     1   0.4627241575   1.63e-10    2.13e-07      N
Collapsing to 2 vector(s).
Change in CC3 energy from last iterated value   -0.0000000324
Iter=29   L=2     Root    EOM Energy     Delta E   Res. Norm    Conv?
                     1   0.4627241577   1.22e-10    2.13e-07      N
Iter=30   L=3     Root    EOM Energy     Delta E   Res. Norm    Conv?
                     1   0.4627241576  -3.46e-11    1.26e-07      N
Iter=31   L=4     Root    EOM Energy     Delta E   Res. Norm    Conv?
                     1   0.4627241576   1.23e-11    6.30e-08      N
Iter=32   L=5     Root    EOM Energy     Delta E   Res. Norm    Conv?
                     1   0.4627241577   1.12e-11    2.65e-08      N
Iter=33   L=6     Root    EOM Energy     Delta E   Res. Norm    Conv?
                     1   0.4627241577  -8.59e-13    1.19e-08      N
Iter=34   L=7     Root    EOM Energy     Delta E   Res. Norm    Conv?
                     1   0.4627241577   3.83e-12    6.00e-09      Y
Collapsing to only 1 vector(s).
Change in CC3 energy from last iterated value    0.0000000001

Procedure converged for 1 root(s).
Energy written to CC_INFO:Etot  -75.4696230358
States per irrep written to CC_INFO.
<R|R> =   0.9999999999999999
EOM CC3 R0 for root 0 =   0.00398785161

Final Energetic Summary for Converged Roots of Irrep B1
                     Excitation Energy              Total Energy
                (eV)     (cm^-1)     (au)             (au)
EOM State 1     12.591   101556.2   0.4627241577   -75.469623035796

Largest components of excited wave function #1:
 RIA (libdpd indices) : (cscf notation)
         1 >   0      :       3a1 >    4a1 :   -0.4930832190
         1 >   2      :       3a1 >    6a1 :    0.1741487080
         1 >   5      :       3a1 >    9a1 :    0.1359542648
         1 >   1      :       3a1 >    5a1 :   -0.1260416743
         1 >   4      :       3a1 >    8a1 :   -0.0511638252
 Ria (libdpd indices) : (cscf notation)
         1 >   0      :       3a1 >    4a1 :    0.5842096498
         1 >   2      :       3a1 >    6a1 :   -0.2350989636
         1 >   5      :       3a1 >    9a1 :    0.1713475198
         1 >   1      :       3a1 >    5a1 :   -0.1373771837
         1 >   4      :       3a1 >    8a1 :   -0.0587106182
 RIjAb (libdpd indices)     : (cscf notation)
        0   1 >   0   0     :    1b1    3a1 >    4a1    1b1 :   -0.3345991140
        0   1 >   2   0     :    1b1    3a1 >    6a1    1b1 :    0.1182865821
        0   1 >   0   1     :    1b1    3a1 >    4a1    2b1 :    0.0956626091
        0   1 >   5   0     :    1b1    3a1 >    9a1    1b1 :    0.0928016807
        0   1 >   1   0     :    1b1    3a1 >    5a1    1b1 :   -0.0833541911
 RIJAB (libdpd indices)     : (cscf notation)
        0   1 >   3   0     :    1b1    3a1 >    5b1    4a1 :    0.0197365418
        0   1 >   0   0     :    1b1    3a1 >    2b1    4a1 :   -0.0193787374
        0   1 >   4   0     :    1b2    3a1 >    6b2    4a1 :   -0.0189354695
        0   1 >   1   0     :    1b2    3a1 >    3b2    4a1 :    0.0181048634
        0   1 >   0   0     :    1b2    3a1 >    2b2    4a1 :    0.0166479531
 Rijab (libdpd indices)     : (cscf notation)
        0   1 >   4   0     :    1b2    3a1 >    6b2    4a1 :    0.0239645260
        0   1 >   1   0     :    1b2    3a1 >    3b2    4a1 :   -0.0231435640
        0   1 >   0   0     :    1b2    3a1 >    2b2    4a1 :   -0.0201495853
        0   1 >   8   0     :    1b2    3a1 >   10b2    4a1 :   -0.0135115403
        1   0 >   5   0     :    3a1    2a1 >    9a1    4a1 :   -0.0095225071

	Putting into environment energy for root of R irrep 1 and root 1.
	Putting into environment CURRENT ENERGY:              -75.4696230358

	Total # of sigma evaluations: 68

*** tstop() called on node16 at Sat Nov  5 10:28:33 2022
Module time:
	user time   =    1631.24 seconds =      27.19 minutes
	system time =     106.46 seconds =       1.77 minutes
	total time  =        434 seconds =       7.23 minutes
Total time:
	user time   =    2077.75 seconds =      34.63 minutes
	system time =     142.13 seconds =       2.37 minutes
	total time  =        559 seconds =       9.32 minutes

    Psi4 stopped on: Saturday, 05 November 2022 10:28AM
    Psi4 wall time for execution: 0:09:18.83

*** Psi4 exiting successfully. Buy a developer a beer!
