
    -----------------------------------------------------------------------
          Psi4: An Open-Source Ab Initio Electronic Structure Package
                               Psi4 1.2 release

                         Git: Rev {HEAD} 9d4a61c 


    R. M. Parrish, L. A. Burns, D. G. A. Smith, A. C. Simmonett,
    A. E. DePrince III, E. G. Hohenstein, U. Bozkaya, A. Yu. Sokolov,
    R. Di Remigio, R. M. Richard, J. F. Gonthier, A. M. James,
    H. R. McAlexander, A. Kumar, M. Saitow, X. Wang, B. P. Pritchard,
    P. Verma, H. F. Schaefer III, K. Patkowski, R. A. King, E. F. Valeev,
    F. A. Evangelista, J. M. Turney, T. D. Crawford, and C. D. Sherrill,
    J. Chem. Theory Comput. 13(7) pp 3185--3197 (2017).
    (doi: 10.1021/acs.jctc.7b00174)


                         Additional Contributions by
    P. Kraus, H. Kruse, M. H. Lechner, M. C. Schieber, and R. A. Shaw

    -----------------------------------------------------------------------


    Psi4 started on: Saturday, 05 November 2022 10:19AM

    Process ID: 13814
    Host:       node20
    PSIDATADIR: /home/qc/psi4conda/share/psi4
    Memory:     500.0 MiB
    Threads:    4
    
  ==> Input File <==

--------------------------------------------------------------------------
#h2o SPECIAL eom-cc3
memory 31950 mb

molecule h2o{
1 2
H        0.0000000000       -1.5507145025       -0.9730664583
O        0.0000000000        0.0000000000        0.1298687266
H        0.0000000000        1.5507145025       -0.9730664583

units bohr
}
 
set globals {
 reference rohf
 basis aug-cc-pvtz-dk
 freeze_core true
 cachelevel=0
 relativistic x2c
 maxiter=500
 dertype none
 ints_tolerance 20
 roots_per_irrep = [0,0,1,0]
}

set scf d_convergence 12
set ccenergy r_convergence 12
set cceom r_convergence 8

energy('eom-cc3')--------------------------------------------------------------------------

  Memory set to  29.756 GiB by Python driver.

*** tstart() called on node20
*** at Sat Nov  5 10:19:25 2022

   => Loading Basis Set <=

    Name: AUG-CC-PVTZ-DK
    Role: ORBITAL
    Keyword: BASIS
    atoms 1, 3 entry H          line    45 file /home/qc/psi4conda/share/psi4/basis/aug-cc-pvtz-dk.gbs 
    atoms 2    entry O          line   324 file /home/qc/psi4conda/share/psi4/basis/aug-cc-pvtz-dk.gbs 


         ---------------------------------------------------------
                                   SCF
            by Justin Turney, Rob Parrish, Andy Simmonett
                             and Daniel Smith
                             ROHF Reference
                        4 Threads,  30469 MiB Core
         ---------------------------------------------------------

  ==> Geometry <==

    Molecular point group: c2v
    Full point group: C2v

    Geometry (in Bohr), charge = 1, multiplicity = 2:

       Center              X                  Y                   Z               Mass       
    ------------   -----------------  -----------------  -----------------  -----------------
         H            0.000000000000    -1.550714502500    -0.979500333454     1.007825032070
         O            0.000000000000     0.000000000000     0.123434851446    15.994914619560
         H           -0.000000000000     1.550714502500    -0.979500333454     1.007825032070

  Running in c2v symmetry.

  Rotational constants: A =     27.64550  B =     12.41982  C =      8.56981 [cm^-1]
  Rotational constants: A = 828791.36497  B = 372336.91855  C = 256916.45696 [MHz]
  Nuclear repulsion =    8.730473323294779

  Charge       = 1
  Multiplicity = 2
  Electrons    = 9
  Nalpha       = 5
  Nbeta        = 4

  ==> Algorithm <==

  SCF Algorithm Type is PK.
  DIIS enabled.
  MOM disabled.
  Fractional occupation disabled.
  Guess Type is GWH.
  Energy threshold   = 1.00e-08
  Density threshold  = 1.00e-12
  Integral threshold = 1.00e-20

  ==> Primary Basis <==

  Basis Set: AUG-CC-PVTZ-DK
    Blend: AUG-CC-PVTZ-DK
    Number of shells: 32
    Number of basis function: 92
    Number of Cartesian functions: 105
    Spherical Harmonics?: true
    Max angular momentum: 3

   => Loading Basis Set <=

    Name: (AUG-CC-PVTZ-DK AUX)
    Role: DECON
    Keyword: BASIS_RELATIVISTIC
    atoms 1, 3 entry H          line    45 file /home/qc/psi4conda/share/psi4/basis/aug-cc-pvtz-dk.gbs func decontract
    atoms 2    entry O          line   324 file /home/qc/psi4conda/share/psi4/basis/aug-cc-pvtz-dk.gbs func decontract

  ==> Pre-Iterations <==

   -------------------------------------------------------
    Irrep   Nso     Nmo     Nalpha   Nbeta   Ndocc  Nsocc
   -------------------------------------------------------
     A1        35      35       0       0       0       0
     A2        12      12       0       0       0       0
     B1        18      18       0       0       0       0
     B2        27      27       0       0       0       0
   -------------------------------------------------------
    Total      92      92       5       4       4       1
   -------------------------------------------------------

 OEINTS: Using relativistic (X2C) overlap, kinetic, and potential integrals.
         ------------------------------------------------------------
         Spin-Free X2C Integrals at the One-Electron Level (SFX2C-1e)
                 by Prakash Verma and Francesco A. Evangelista
         ------------------------------------------------------------

  ==> X2C Options <==

    Computational Basis: AUG-CC-PVTZ-DK
    X2C Basis: (AUG-CC-PVTZ-DK AUX)
    The X2C Hamiltonian will be computed in the X2C Basis

    Comparing only 35 out of 45 elements of H_Dirac

    Comparing only 18 out of 20 elements of H_Dirac

    Comparing only 27 out of 31 elements of H_Dirac

    The 1-norm of |H_X2C - H_Dirac| is: 6.615729605097

    WARNING: The X2C and Dirac Hamiltonians have substatially different eigenvalues!
             This is probably caused by the recontraction of the basis set.

  ==> Integral Setup <==

  Using in-core PK algorithm.
   Calculation information:
      Number of atoms:                   3
      Number of AO shells:              32
      Number of primitives:             52
      Number of atomic orbitals:       105
      Number of basis functions:        92

      Integral cutoff                 1.00e-20
      Number of threads:                 4

  Performing in-core PK
  Using 18305562 doubles for integral storage.
  We computed 171364 shell quartets total.
  Whereas there are 139656 unique shell quartets.
    22.70 percent of shell quartets recomputed by reordering.

  ==> DiskJK: Disk-Based J/K Matrices <==

    J tasked:                  Yes
    K tasked:                  Yes
    wK tasked:                  No
    Memory (MB):             22852
    Schwarz Cutoff:          1E-20

    OpenMP threads:              4

  Minimum eigenvalue in the overlap matrix is 4.1639713626E-04.
  Using Symmetric Orthogonalization.

  SCF Guess: Generalized Wolfsberg-Helmholtz.

  ==> Iterations <==

                        Total Energy        Delta E     RMS |[F,P]|

   @ROHF iter   1:   -69.35723421482538   -6.93572e+01   9.94205e-02 
   @ROHF iter   2:   -75.56900431356050   -6.21177e+00   1.38321e-02 DIIS
   @ROHF iter   3:   -75.68902760755337   -1.20023e-01   3.14589e-03 DIIS
   @ROHF iter   4:   -75.70178273622550   -1.27551e-02   1.29999e-03 DIIS
   @ROHF iter   5:   -75.70417822064505   -2.39548e-03   3.97649e-04 DIIS
   @ROHF iter   6:   -75.70438464798006   -2.06427e-04   6.25142e-05 DIIS
   @ROHF iter   7:   -75.70439462260398   -9.97462e-06   1.14652e-05 DIIS
   @ROHF iter   8:   -75.70439488136296   -2.58759e-07   1.86999e-06 DIIS
   @ROHF iter   9:   -75.70439488618351   -4.82055e-09   4.20933e-07 DIIS
   @ROHF iter  10:   -75.70439488636424   -1.80734e-10   8.87697e-08 DIIS
   @ROHF iter  11:   -75.70439488637209   -7.84439e-12   1.01195e-08 DIIS
   @ROHF iter  12:   -75.70439488637231   -2.27374e-13   1.32279e-09 DIIS
   @ROHF iter  13:   -75.70439488637217    1.42109e-13   2.03684e-10 DIIS
   @ROHF iter  14:   -75.70439488637223   -5.68434e-14   3.35926e-11 DIIS
   @ROHF iter  15:   -75.70439488637217    5.68434e-14   7.36910e-12 DIIS
   @ROHF iter  16:   -75.70439488637233   -1.56319e-13   9.05808e-13 DIIS

  ==> Post-Iterations <==

    Orbital Energies [Eh]
    ---------------------

    Doubly Occupied:                                                      

       1A1   -21.117616     2A1    -1.796750     1B2    -1.169942  
       3A1    -1.045918  

    Singly Occupied:                                                      

       1B1    -0.684515  

    Virtual:                                                              

       4A1    -0.182098     2B2    -0.117316     5A1    -0.060919  
       2B1    -0.057405     6A1    -0.042646     3B2    -0.028665  
       4B2     0.010502     7A1     0.017912     1A2     0.036537  
       3B1     0.069383     8A1     0.072023     5B2     0.162613  
       9A1     0.176825     6B2     0.193057     7B2     0.323630  
      10A1     0.347695    11A1     0.409256     2A2     0.423603  
       4B1     0.423679    12A1     0.513818     5B1     0.554098  
      13A1     0.585357     8B2     0.595370     6B1     0.607987  
       3A2     0.623127     9B2     0.661510    14A1     0.666423  
      15A1     0.726917    10B2     0.741384     7B1     0.747116  
      11B2     0.826695    16A1     0.858751     4A2     0.870112  
      12B2     0.967330     5A2     1.162383     8B1     1.220205  
      17A1     1.245523    13B2     1.406457    18A1     1.446525  
      14B2     1.572599    19A1     1.675140     9B1     1.832300  
       6A2     1.897023    20A1     1.944245    21A1     1.980287  
      10B1     2.003162    15B2     2.052026    22A1     2.103475  
      23A1     2.306212    11B1     2.307621    16B2     2.327249  
       7A2     2.448678    17B2     2.485184    18B2     3.150850  
      24A1     3.295049     8A2     3.571303    12B1     3.577959  
      19B2     3.764777    25A1     3.768073    13B1     3.888769  
      14B1     3.964836     9A2     3.966186    20B2     4.039857  
      26A1     4.077887    27A1     4.192673    21B2     4.259303  
      22B2     4.590357    10A2     4.616299    28A1     4.713313  
      23B2     4.823414    15B1     4.898074    29A1     5.203915  
      30A1     5.600287    24B2     6.068896    16B1     6.202656  
      31A1     6.287625    17B1     6.589567    11A2     6.695594  
      18B1     6.706492    32A1     6.774536    25B2     6.821394  
      12A2     6.853178    33A1     6.952645    26B2     7.295178  
      34A1     7.393605    27B2     8.043330    35A1    13.923940  

    Final Occupation by Irrep:
             A1    A2    B1    B2 
    DOCC [     3,    0,    0,    1 ]
    SOCC [     0,    0,    1,    0 ]

  Energy converged.

  @ROHF Final Energy:   -75.70439488637233

   => Energetics <=

    Nuclear Repulsion Energy =              8.7304733232947793
    One-Electron Energy =                -117.5030018262727083
    Two-Electron Energy =                  33.0681336166056070
    Total Energy =                        -75.7043948863723273



Properties will be evaluated at   0.000000,   0.000000,   0.000000 [a0]

Properties computed using the SCF density matrix

  Nuclear Dipole Moment: [e a0]
     X:     0.0000      Y:     0.0000      Z:    -0.9715

  Electronic Dipole Moment: [e a0]
     X:     0.0000      Y:     0.0000      Z:    -0.0044

  Dipole Moment: [e a0]
     X:     0.0000      Y:     0.0000      Z:    -0.9759     Total:     0.9759

  Dipole Moment: [D]
     X:     0.0000      Y:     0.0000      Z:    -2.4805     Total:     2.4805


*** tstop() called on node20 at Sat Nov  5 10:19:26 2022
Module time:
	user time   =       5.25 seconds =       0.09 minutes
	system time =       0.14 seconds =       0.00 minutes
	total time  =          1 seconds =       0.02 minutes
Total time:
	user time   =       5.25 seconds =       0.09 minutes
	system time =       0.14 seconds =       0.00 minutes
	total time  =          1 seconds =       0.02 minutes
   => Loading Basis Set <=

    Name: (AUG-CC-PVTZ-DK AUX)
    Role: DECON
    Keyword: BASIS_RELATIVISTIC
    atoms 1, 3 entry H          line    45 file /home/qc/psi4conda/share/psi4/basis/aug-cc-pvtz-dk.gbs func decontract
    atoms 2    entry O          line   324 file /home/qc/psi4conda/share/psi4/basis/aug-cc-pvtz-dk.gbs func decontract

 MINTS: Wrapper to libmints.
   by Justin Turney

   Calculation information:
      Number of threads:                 4
      Number of atoms:                   3
      Number of AO shells:              32
      Number of SO shells:              23
      Number of primitives:             52
      Number of atomic orbitals:       105
      Number of basis functions:        92

      Number of irreps:                  4
      Integral cutoff                 1.00e-20
      Number of functions per irrep: [  35   12   18   27 ]

 OEINTS: Using relativistic (X2C) overlap, kinetic, and potential integrals.
         ------------------------------------------------------------
         Spin-Free X2C Integrals at the One-Electron Level (SFX2C-1e)
                 by Prakash Verma and Francesco A. Evangelista
         ------------------------------------------------------------

  ==> X2C Options <==

    Computational Basis: AUG-CC-PVTZ-DK
    X2C Basis: (AUG-CC-PVTZ-DK AUX)
    The X2C Hamiltonian will be computed in the X2C Basis

    Comparing only 35 out of 45 elements of H_Dirac

    Comparing only 18 out of 20 elements of H_Dirac

    Comparing only 27 out of 31 elements of H_Dirac

    The 1-norm of |H_X2C - H_Dirac| is: 6.615729605097

    WARNING: The X2C and Dirac Hamiltonians have substatially different eigenvalues!
             This is probably caused by the recontraction of the basis set.

 OEINTS: Overlap, kinetic, potential, dipole, and quadrupole integrals
         stored in file 35.

      Computing two-electron integrals...done
      Computed 2244372 non-zero two-electron integrals.
        Stored in file 33.


*** tstart() called on node20
*** at Sat Nov  5 10:19:27 2022


	Wfn Parameters:
	--------------------
	Wavefunction         = CC3
	Number of irreps     = 4
	Number of MOs        = 92
	Number of active MOs = 91
	AO-Basis             = NONE
	Semicanonical        = true
	Reference            = ROHF changed to UHF for semicanonical orbitals
	Print Level          = 1

	IRREP	# MOs	# FZDC	# DOCC	# SOCC	# VIRT	# FZVR
	-----	-----	------	------	------	------	------
	 A1	   35	    1	    2	    0	    32	    0
	 A2	   12	    0	    0	    0	    12	    0
	 B1	   18	    0	    0	    1	    17	    0
	 B2	   27	    0	    1	    0	    26	    0
	Transforming integrals...
	IWL integrals will be deleted.
	(OO|OO)...
	Presorting SO-basis two-electron integrals.
	Sorting File: SO Ints (nn|nn) nbuckets = 1
	Transforming the one-electron integrals and constructing Fock matrices
	Starting AA/AB first half-transformation.
	Sorting AA/AB half-transformed integrals.
	Starting BB first half-transformation.
	Sorting BB half-transformed integrals.
	First half integral transformation complete.
	Starting AA second half-transformation.
	Starting AB second half-transformation.
	Starting BB second half-transformation.
	Two-electron integral transformation complete.
	(OO|OV)...
	Starting AA second half-transformation.
	Starting AB second half-transformation.
	Starting BB second half-transformation.
	Two-electron integral transformation complete.
	(OO|VV)...
	Starting AA second half-transformation.
	Starting AB second half-transformation.
	Starting BB second half-transformation.
	Two-electron integral transformation complete.
	(OV|OO)...
	Starting AA/AB first half-transformation.
	Sorting AA/AB half-transformed integrals.
	Starting BB first half-transformation.
	Sorting BB half-transformed integrals.
	First half integral transformation complete.
	Starting AA second half-transformation.
	Starting AB second half-transformation.
	Starting BB second half-transformation.
	Two-electron integral transformation complete.
	(OV|OV)...
	Starting AA second half-transformation.
	Starting AB second half-transformation.
	Starting BB second half-transformation.
	Two-electron integral transformation complete.
	(OV|VV)...
	Starting AA second half-transformation.
	Starting AB second half-transformation.
	Starting BB second half-transformation.
	Two-electron integral transformation complete.
	(VV|OO)...
	Starting AA/AB first half-transformation.
	Sorting AA/AB half-transformed integrals.
	Starting BB first half-transformation.
	Sorting BB half-transformed integrals.
	First half integral transformation complete.
	Starting AA second half-transformation.
	Starting AB second half-transformation.
	Starting BB second half-transformation.
	Two-electron integral transformation complete.
	(VV|OV)...
	Starting AA second half-transformation.
	Starting AB second half-transformation.
	Starting BB second half-transformation.
	Two-electron integral transformation complete.
	(VV|VV)...
	Starting AA second half-transformation.
	Starting AB second half-transformation.
	Starting BB second half-transformation.
	Two-electron integral transformation complete.
	Frozen core energy     =    -61.25309300457570

	Size of irrep 0 of <AB|CD> integrals:      1.047 (MW) /      8.372 (MB)
	Size of irrep 1 of <AB|CD> integrals:      0.682 (MW) /      5.458 (MB)
	Size of irrep 2 of <AB|CD> integrals:      0.733 (MW) /      5.862 (MB)
	Size of irrep 3 of <AB|CD> integrals:      1.073 (MW) /      8.586 (MB)
	Total:                                     3.535 (MW) /     28.279 (MB)

	Size of irrep 0 of <ab|cd> integrals:      1.082 (MW) /      8.653 (MB)
	Size of irrep 1 of <ab|cd> integrals:      0.726 (MW) /      5.807 (MB)
	Size of irrep 2 of <ab|cd> integrals:      0.789 (MW) /      6.308 (MB)
	Size of irrep 3 of <ab|cd> integrals:      1.098 (MW) /      8.786 (MB)
	Total:                                     3.694 (MW) /     29.555 (MB)

	Size of irrep 0 of <Ab|Cd> integrals:      4.622 (MW) /     36.980 (MB)
	Size of irrep 1 of <Ab|Cd> integrals:      2.816 (MW) /     22.525 (MB)
	Size of irrep 2 of <Ab|Cd> integrals:      3.042 (MW) /     24.332 (MB)
	Size of irrep 3 of <Ab|Cd> integrals:      4.343 (MW) /     34.744 (MB)
	Total:                                    14.823 (MW) /    118.582 (MB)

	Size of irrep 0 of <IA|BC> integrals:      0.228 (MW) /      1.826 (MB)
	Size of irrep 1 of <IA|BC> integrals:      0.111 (MW) /      0.885 (MB)
	Size of irrep 2 of <IA|BC> integrals:      0.134 (MW) /      1.068 (MB)
	Size of irrep 3 of <IA|BC> integrals:      0.199 (MW) /      1.591 (MB)
	Total:                                     0.671 (MW) /      5.371 (MB)

	Size of irrep 0 of <ia|bc> integrals:      0.195 (MW) /      1.561 (MB)
	Size of irrep 1 of <ia|bc> integrals:      0.072 (MW) /      0.573 (MB)
	Size of irrep 2 of <ia|bc> integrals:      0.085 (MW) /      0.682 (MB)
	Size of irrep 3 of <ia|bc> integrals:      0.176 (MW) /      1.409 (MB)
	Total:                                     0.528 (MW) /      4.224 (MB)

	Size of irrep 0 of <Ia|Bc> integrals:      0.232 (MW) /      1.858 (MB)
	Size of irrep 1 of <Ia|Bc> integrals:      0.114 (MW) /      0.913 (MB)
	Size of irrep 2 of <Ia|Bc> integrals:      0.140 (MW) /      1.116 (MB)
	Size of irrep 3 of <Ia|Bc> integrals:      0.200 (MW) /      1.601 (MB)
	Total:                                     0.686 (MW) /      5.487 (MB)

	Size of irrep 0 of <iA|bC> integrals:      0.194 (MW) /      1.548 (MB)
	Size of irrep 1 of <iA|bC> integrals:      0.069 (MW) /      0.550 (MB)
	Size of irrep 2 of <iA|bC> integrals:      0.080 (MW) /      0.642 (MB)
	Size of irrep 3 of <iA|bC> integrals:      0.175 (MW) /      1.400 (MB)
	Total:                                     0.518 (MW) /      4.141 (MB)

	Size of irrep 0 of tIjAb amplitudes:       0.011 (MW) /      0.086 (MB)
	Size of irrep 1 of tIjAb amplitudes:       0.002 (MW) /      0.013 (MB)
	Size of irrep 2 of tIjAb amplitudes:       0.003 (MW) /      0.028 (MB)
	Size of irrep 3 of tIjAb amplitudes:       0.008 (MW) /      0.067 (MB)
	Total:                                     0.024 (MW) /      0.194 (MB)

	Nuclear Rep. energy          =      8.73047332329478
	SCF energy                   =    -75.70439488637233
	One-electron energy          =    -37.23208382524768
	Two-electron (AA) energy     =      3.69573684724016
	Two-electron (BB) energy     =      1.75004336591042
	Two-electron (AB) energy     =      8.60452840700576
	Two-electron energy          =     14.05030862015633
	Reference energy             =    -75.70439488637227

*** tstop() called on node20 at Sat Nov  5 10:19:30 2022
Module time:
	user time   =       2.14 seconds =       0.04 minutes
	system time =       0.97 seconds =       0.02 minutes
	total time  =          3 seconds =       0.05 minutes
Total time:
	user time   =       9.16 seconds =       0.15 minutes
	system time =       1.16 seconds =       0.02 minutes
	total time  =          5 seconds =       0.08 minutes

*** tstart() called on node20
*** at Sat Nov  5 10:19:30 2022

            **************************
            *                        *
            *        CCENERGY        *
            *                        *
            **************************

    Nuclear Rep. energy (wfn)     =    8.730473323294779
    SCF energy          (wfn)     =  -75.704394886372327
    Reference energy    (file100) =  -75.704394886372270

    Input parameters:
    -----------------
    Wave function   =     CC3
    Reference wfn   =     ROHF changed to UHF for Semicanonical Orbitals
    Brueckner       =     No
    Memory (Mbytes) =     31950.0
    Maxiter         =    500
    R_Convergence   =     1.0e-12
    E_Convergence   =     1.0e-06
    Restart         =     Yes
    DIIS            =     Yes
    AO Basis        =     NONE
    ABCD            =     NEW
    Cache Level     =     0
    Cache Type      =     LRU
    Print Level     =     1
    Num. of threads =     4
    # Amps to Print =     10
    Print MP2 Amps? =     No
    Analyze T2 Amps =     No
    Print Pair Ener =     No
    Local CC        =     No
    T3 Ws incore    =     No
    SCS-MP2         =     False
    SCSN-MP2        =     False
    SCS-CCSD        =     False

MP2 correlation energy -0.2075462623726833
                Solving CC Amplitude Equations
                ------------------------------
  Iter             Energy              RMS        T1Diag      D1Diag    New D1Diag    D2Diag
  ----     ---------------------    ---------   ----------  ----------  ----------   --------
     0        -0.207604822453968    0.000e+00    0.013519    0.000000    0.000000    0.000000
     1        -0.222562469510742    3.360e-02    0.016709    0.000000    0.000000    0.000000
     2        -0.227620574325454    1.229e-02    0.018475    0.000000    0.000000    0.000000
     3        -0.227927195712219    4.188e-03    0.019064    0.000000    0.000000    0.000000
     4        -0.227938589960072    1.826e-03    0.019138    0.000000    0.000000    0.000000
     5        -0.227976315350997    7.629e-04    0.019111    0.000000    0.000000    0.000000
     6        -0.227979963171376    2.543e-04    0.019075    0.000000    0.000000    0.000000
     7        -0.227982356513819    9.758e-05    0.019063    0.000000    0.000000    0.000000
     8        -0.227982199812091    3.391e-05    0.019061    0.000000    0.000000    0.000000
     9        -0.227982160534964    1.135e-05    0.019061    0.000000    0.000000    0.000000
    10        -0.227982287540408    4.224e-06    0.019062    0.000000    0.000000    0.000000
    11        -0.227982220785605    1.444e-06    0.019062    0.000000    0.000000    0.000000
    12        -0.227982202477240    4.362e-07    0.019062    0.000000    0.000000    0.000000
    13        -0.227982191248207    1.207e-07    0.019062    0.000000    0.000000    0.000000
    14        -0.227982190884410    3.615e-08    0.019062    0.000000    0.000000    0.000000
    15        -0.227982190847130    1.374e-08    0.019062    0.000000    0.000000    0.000000
    16        -0.227982190769954    6.226e-09    0.019062    0.000000    0.000000    0.000000
    17        -0.227982190660475    2.831e-09    0.019062    0.000000    0.000000    0.000000
    18        -0.227982190588717    1.184e-09    0.019062    0.000000    0.000000    0.000000
    19        -0.227982190577320    4.774e-10    0.019062    0.000000    0.000000    0.000000
    20        -0.227982190578337    1.672e-10    0.019062    0.000000    0.000000    0.000000
    21        -0.227982190577486    5.784e-11    0.019062    0.000000    0.000000    0.000000
    22        -0.227982190577600    2.034e-11    0.019062    0.000000    0.000000    0.000000
    23        -0.227982190577580    6.163e-12    0.019062    0.000000    0.000000    0.000000
    24        -0.227982190577625    2.049e-12    0.019062    0.000000    0.000000    0.000000
    25        -0.227982190577632    5.885e-13    0.019062    0.000000    0.000000    0.000000

    Iterations converged.


    Largest TIA Amplitudes:
              0  14        -0.0098258874
              0   0        -0.0090424474
              0   6         0.0084168736
              0  15        -0.0080698701
              0  17         0.0078563020
              0   5         0.0078350592
              0   7         0.0076909586
              0   2         0.0072904254
              2  44         0.0062964359
              1  17        -0.0061598201

    Largest Tia Amplitudes:
              1   1         0.0108997609
              2  63         0.0107775602
              0   0        -0.0100452235
              0   2         0.0097504402
              2  62         0.0096240546
              2  66        -0.0087966317
              1   0        -0.0085488261
              0  17         0.0081734881
              0   7         0.0081420371
              1   4         0.0080257152

    Largest TIJAB Amplitudes:
      2   1  47   9         0.0083089276
      3   2  65  47         0.0079625647
      3   2  33   6         0.0079473539
      2   1  51  17        -0.0078236890
      3   2  62  47        -0.0070461362
      3   2  61  47        -0.0070019512
      3   1  65   9        -0.0069939361
      2   1  46   7         0.0069697071
      2   1  48   9        -0.0068918817
      2   1  44   9         0.0066472744

    Largest Tijab Amplitudes:
      1   0  47  44         0.0081411896
      2   0  44  33         0.0077896547
      1   0  52  44         0.0074511490
      2   1  63   6        -0.0072026882
      2   1  66   9         0.0070740791
      2   1  66   6         0.0068588050
      2   1  62   9        -0.0064373594
      2   1  67   6         0.0063313569
      2   1  66   1         0.0061517271
      2   0  44  36         0.0060302948

    Largest TIjAb Amplitudes:
      3   2  65  66        -0.0193295386
      1   1   9   9         0.0178396778
      3   2  62  66         0.0176392091
      3   2  65  63         0.0175413823
      2   0   0  44        -0.0168029837
      3   2  62  63        -0.0164694101
      2   0   6  44         0.0159620002
      3   2  61  66         0.0158153490
      2   0  14  44        -0.0156362408
      1   0  51  44        -0.0150086746

    SCF energy       (wfn)                    =  -75.704394886372327
    Reference energy (file100)                =  -75.704394886372270

    Opposite-spin MP2 correlation energy      =   -0.158446875499258
    Same-spin MP2 correlation energy          =   -0.045491804616591
    MP2 correlation energy                    =   -0.207546262372683
      * MP2 total energy                      =  -75.911941148744958
    CC3 correlation energy                    =   -0.227982190577632
      * CC3 total energy                      =  -75.932377076949905


*** tstop() called on node20 at Sat Nov  5 10:21:28 2022
Module time:
	user time   =     436.76 seconds =       7.28 minutes
	system time =      32.05 seconds =       0.53 minutes
	total time  =        118 seconds =       1.97 minutes
Total time:
	user time   =     445.92 seconds =       7.43 minutes
	system time =      33.21 seconds =       0.55 minutes
	total time  =        123 seconds =       2.05 minutes

*** tstart() called on node20
*** at Sat Nov  5 10:21:28 2022


			**************************
			*                        *
			*         CCHBAR         *
			*                        *
			**************************

Dots of (HeT1)c in names "CC3 Wxxx" in CC3_HET1 
Wamef terms
	<WAMEF|WAMEF> =   13.2861997443
	<Wamef|Wamef> =   10.8463429029
	<WAmEf|WAmEf> =    9.3051008166
	<WaMeF|WaMeF> =   12.6421033451
Wmnie terms
	<WMNIE (M>N,IE)|WMNIE> =    0.7439662430
	<Wmnie (m>n,ie)|Wmnie> =    0.3275091048
	<WMnIe (Mn,Ie)|WMnIe> =    0.7247540283
	<WmNiE (mN,iE)|WmNiE> =    0.6124358014
	<WMNIE(M>N,EI)|WMNIE(M>N,EI)> =    0.7439662430
	<Wmnie(m>n,ei)|Wmnie(m>n,ei)> =    0.3275091048
	<WMnIe(Mn,eI)|WMnIe(Mn,eI)> =    0.7247540283
	<WmNiE(mN,Ei)|WmNiE(mN,Ei)> =    0.6124358014
Doing Wmnij terms.
	<WMNIJ (M>N,I>J)|WMNIJ> =    9.2032334297
	<Wmnij (m>n,i>j)|Wmnij> =    4.0320261098
	<WMnIj (Mn,Ij)|WMnIj> =    6.3695568269
Doing Wmbij terms.
	<WMBIJ (MB,I>J)|WMBIJ> =    0.7493932309
	<WMBIJ (I>J,MB)|WMBIJ> =    0.7493932309
	<Wmbij (mb,i>j)|Wmbij> =    0.3333863629
	<Wmbij (i>j,mb)|Wmbij> =    0.3333863629
	<WMbIj (Mb,Ij)|WMbIj> =    0.7282637516
	<WMbIj (Ij,Mb)|WMbIj> =    0.7282637516
	<WmBiJ (mB,iJ)|WmBiJ> =    0.6158406679
	<WmBiJ (iJ,mB)|WmBiJ> =    0.6158406679
Doing Wmbej terms.
	<WMBEJ (all ME,JB)|WMBEJ> =   81.6455746904
	<Wmbej|Wmbej> =   61.7808136965
	<WMbEj|WMbEj> =    1.0278220538
	<WmBeJ|WmBeJ> =    1.0374387518
	<WMbeJ|WMbeJ> =   94.6419895266
	<WmBEj|WmBEj> =   67.7498136381
Doing Wabei terms.
	<WABEI (IE,B>A) |WABEI> =   13.3408822809
	<Wabei (ie,b>a)|Wabei> =   10.9471853878
	<WAbEi (iE,bA)|WAbEi> =    9.3819088804
	<WAbEi (iE,Ba)|WAbEi> =   12.6780095324

*** tstop() called on node20 at Sat Nov  5 10:21:29 2022
Module time:
	user time   =       3.06 seconds =       0.05 minutes
	system time =       0.64 seconds =       0.01 minutes
	total time  =          1 seconds =       0.02 minutes
Total time:
	user time   =     448.99 seconds =       7.48 minutes
	system time =      33.85 seconds =       0.56 minutes
	total time  =        124 seconds =       2.07 minutes

*** tstart() called on node20
*** at Sat Nov  5 10:21:29 2022


	**********************************************************
	*  CCEOM: An Equation of Motion Coupled Cluster Program  *
	**********************************************************

	Nuclear Rep. energy (wfn)     =    8.730473323294779
	SCF energy          (wfn)     =  -75.704394886372327
	Reference energy    (file100) =  -75.704394886372270
	CC3 energy          (file100) =   -0.227982190577632

	Input parameters:
	-----------------
	Reference wfn   = ROHF changed to UHF for Semicanonical Orbitals
	Reference EOM wfn=     UHF
	Memory (Mbytes) =  31950.0
	ABCD            =     NEW
	Cache Level     =    0
	Cache Type      =     LRU
	T3 Ws incore  =      No
	Num. of threads =     4
	Local CC        =     No


	CCEOM parameters:
	-----------------
	States sought per irrep     = A1 0, A2 0, B1 1, B2 0,
	Max. number of iterations   =   500
	Vectors stored per root     =    12
	Print HbarSS iterations?    =     0
	Excitation range for HBarSS =     2
	Eigenvalue tolerance        = 1.0e-06
	Eigenvalue toleranceSS      = 1.0e-06
	Residual vector tolerance   = 1.0e-08
	Residual vector toleranceSS = 1.0e-06
	Complex tolerance           = 1.0e-12
	Root for properties         =     1
	Sym of state for properties =     A1
	Guess vectors taken from    = SINGLES
	Restart EOM CC3             = NO
	Collapse with last vector   = YES


Symmetry of ground state: B1
Symmetry of excited state: B1
Symmetry of right eigenvector: A1
Obtaining initial guess from singles-singles block of Hbar...Done.

Iter=1    L=1     Root    EOM Energy     Delta E   Res. Norm    Conv?
                     1   0.5736651081   5.74e-01    5.13e-01      N
Iter=2    L=2     Root    EOM Energy     Delta E   Res. Norm    Conv?
                     1   0.4826225871  -9.10e-02    9.74e-02      N
Iter=3    L=3     Root    EOM Energy     Delta E   Res. Norm    Conv?
                     1   0.4763594171  -6.26e-03    6.42e-02      N
Iter=4    L=4     Root    EOM Energy     Delta E   Res. Norm    Conv?
                     1   0.4730947311  -3.26e-03    4.65e-02      N
Iter=5    L=5     Root    EOM Energy     Delta E   Res. Norm    Conv?
                     1   0.4718651394  -1.23e-03    2.71e-02      N
Iter=6    L=6     Root    EOM Energy     Delta E   Res. Norm    Conv?
                     1   0.4714295139  -4.36e-04    1.35e-02      N
Iter=7    L=7     Root    EOM Energy     Delta E   Res. Norm    Conv?
                     1   0.4712911665  -1.38e-04    8.79e-03      N
Iter=8    L=8     Root    EOM Energy     Delta E   Res. Norm    Conv?
                     1   0.4712145639  -7.66e-05    6.28e-03      N
Iter=9    L=9     Root    EOM Energy     Delta E   Res. Norm    Conv?
                     1   0.4711783212  -3.62e-05    3.82e-03      N
Iter=10   L=10    Root    EOM Energy     Delta E   Res. Norm    Conv?
                     1   0.4711674395  -1.09e-05    2.88e-03      N
Iter=11   L=11    Root    EOM Energy     Delta E   Res. Norm    Conv?
                     1   0.4711579629  -9.48e-06    2.35e-03      N
Iter=12   L=12    Root    EOM Energy     Delta E   Res. Norm    Conv?
                     1   0.4711545432  -3.42e-06    1.38e-03      N
Iter=13   L=2     Root    EOM Energy     Delta E   Res. Norm    Conv?
                     1   0.4711545432  -5.00e-16    1.38e-03      N
Iter=14   L=3     Root    EOM Energy     Delta E   Res. Norm    Conv?
                     1   0.4711537169  -8.26e-07    6.72e-04      N
Iter=15   L=4     Root    EOM Energy     Delta E   Res. Norm    Conv?
                     1   0.4711539661   2.49e-07    3.98e-04      N
Iter=16   L=5     Root    EOM Energy     Delta E   Res. Norm    Conv?
                     1   0.4711532449  -7.21e-07    2.29e-04      N
Iter=17   L=6     Root    EOM Energy     Delta E   Res. Norm    Conv?
                     1   0.4711528320  -4.13e-07    9.84e-05      N
Iter=18   L=7     Root    EOM Energy     Delta E   Res. Norm    Conv?
                     1   0.4711529268   9.48e-08    3.81e-05      N
Iter=19   L=8     Root    EOM Energy     Delta E   Res. Norm    Conv?
                     1   0.4711528785  -4.83e-08    1.50e-05      N
Iter=20   L=9     Root    EOM Energy     Delta E   Res. Norm    Conv?
                     1   0.4711528733  -5.27e-09    6.68e-06      N
Iter=21   L=10    Root    EOM Energy     Delta E   Res. Norm    Conv?
                     1   0.4711528703  -2.95e-09    2.73e-06      N
Iter=22   L=11    Root    EOM Energy     Delta E   Res. Norm    Conv?
                     1   0.4711528729   2.58e-09    1.03e-06      N
Iter=23   L=12    Root    EOM Energy     Delta E   Res. Norm    Conv?
                     1   0.4711528768   3.94e-09    4.61e-07      N
Iter=24   L=2     Root    EOM Energy     Delta E   Res. Norm    Conv?
                     1   0.4711528768   5.10e-13    4.61e-07      N
Iter=25   L=3     Root    EOM Energy     Delta E   Res. Norm    Conv?
                     1   0.4711528775   6.86e-10    3.24e-07      N
Iter=26   L=4     Root    EOM Energy     Delta E   Res. Norm    Conv?
                     1   0.4711528779   4.18e-10    2.32e-07      N
Iter=27   L=5     Root    EOM Energy     Delta E   Res. Norm    Conv?
                     1   0.4711528786   7.11e-10    1.44e-07      N
Iter=28   L=6     Root    EOM Energy     Delta E   Res. Norm    Conv?
                     1   0.4711528788   2.02e-10    8.82e-08      N
Iter=29   L=7     Root    EOM Energy     Delta E   Res. Norm    Conv?
                     1   0.4711528790   2.03e-10    5.80e-08      N
Iter=30   L=8     Root    EOM Energy     Delta E   Res. Norm    Conv?
                     1   0.4711528791   1.12e-11    4.02e-08      N
Iter=31   L=9     Root    EOM Energy     Delta E   Res. Norm    Conv?
                     1   0.4711528790  -1.32e-11    2.50e-08      N
Iter=32   L=10    Root    EOM Energy     Delta E   Res. Norm    Conv?
                     1   0.4711528791   3.99e-12    1.48e-08      N
Iter=33   L=11    Root    EOM Energy     Delta E   Res. Norm    Conv?
                     1   0.4711528790  -2.93e-11    9.67e-09      Y
Completed EOM_CCSD
Collapsing to only 1 vector(s).
Copying root 1 to CC3_MISC file.
Setting initial CC3 eigenvalue to    0.4711528790
Iter=1    L=1     Root    EOM Energy     Delta E   Res. Norm    Conv?
                     1   0.4658134368  -5.34e-03    4.35e-02      N
Iter=2    L=2     Root    EOM Energy     Delta E   Res. Norm    Conv?
                     1   0.4642594958  -1.55e-03    2.71e-02      N
Iter=3    L=3     Root    EOM Energy     Delta E   Res. Norm    Conv?
                     1   0.4628078416  -1.45e-03    4.26e-02      N
Iter=4    L=4     Root    EOM Energy     Delta E   Res. Norm    Conv?
                     1   0.4609907481  -1.82e-03    2.51e-02      N
Iter=5    L=5     Root    EOM Energy     Delta E   Res. Norm    Conv?
                     1   0.4605963256  -3.94e-04    1.30e-02      N
Iter=6    L=6     Root    EOM Energy     Delta E   Res. Norm    Conv?
                     1   0.4604690757  -1.27e-04    1.22e-02      N
Iter=7    L=7     Root    EOM Energy     Delta E   Res. Norm    Conv?
                     1   0.4603256547  -1.43e-04    9.24e-03      N
Iter=8    L=8     Root    EOM Energy     Delta E   Res. Norm    Conv?
                     1   0.4602444789  -8.12e-05    5.26e-03      N
Iter=9    L=9     Root    EOM Energy     Delta E   Res. Norm    Conv?
                     1   0.4602390552  -5.42e-06    2.35e-03      N
Iter=10   L=10    Root    EOM Energy     Delta E   Res. Norm    Conv?
                     1   0.4602381167  -9.39e-07    1.17e-03      N
Collapsing to 2 vector(s).
Change in CC3 energy from last iterated value   -0.0109147623
Iter=11   L=2     Root    EOM Energy     Delta E   Res. Norm    Conv?
                     1   0.4602659065   2.78e-05    1.17e-03      N
Iter=12   L=3     Root    EOM Energy     Delta E   Res. Norm    Conv?
                     1   0.4602638430  -2.06e-06    7.64e-04      N
Iter=13   L=4     Root    EOM Energy     Delta E   Res. Norm    Conv?
                     1   0.4602636176  -2.25e-07    4.85e-04      N
Iter=14   L=5     Root    EOM Energy     Delta E   Res. Norm    Conv?
                     1   0.4602640221   4.05e-07    2.26e-04      N
Iter=15   L=6     Root    EOM Energy     Delta E   Res. Norm    Conv?
                     1   0.4602633812  -6.41e-07    1.19e-04      N
Iter=16   L=7     Root    EOM Energy     Delta E   Res. Norm    Conv?
                     1   0.4602633574  -2.38e-08    7.40e-05      N
Iter=17   L=8     Root    EOM Energy     Delta E   Res. Norm    Conv?
                     1   0.4602636593   3.02e-07    5.35e-05      N
Iter=18   L=9     Root    EOM Energy     Delta E   Res. Norm    Conv?
                     1   0.4602637255   6.61e-08    4.54e-05      N
Iter=19   L=10    Root    EOM Energy     Delta E   Res. Norm    Conv?
                     1   0.4602637029  -2.25e-08    3.31e-05      N
Collapsing to 2 vector(s).
Change in CC3 energy from last iterated value    0.0000255862
Iter=20   L=2     Root    EOM Energy     Delta E   Res. Norm    Conv?
                     1   0.4602636063  -9.66e-08    3.27e-05      N
Iter=21   L=3     Root    EOM Energy     Delta E   Res. Norm    Conv?
                     1   0.4602636381   3.18e-08    1.80e-05      N
Iter=22   L=4     Root    EOM Energy     Delta E   Res. Norm    Conv?
                     1   0.4602636560   1.79e-08    9.72e-06      N
Iter=23   L=5     Root    EOM Energy     Delta E   Res. Norm    Conv?
                     1   0.4602636670   1.10e-08    4.46e-06      N
Iter=24   L=6     Root    EOM Energy     Delta E   Res. Norm    Conv?
                     1   0.4602636688   1.81e-09    1.88e-06      N
Iter=25   L=7     Root    EOM Energy     Delta E   Res. Norm    Conv?
                     1   0.4602636685  -3.29e-10    9.43e-07      N
Iter=26   L=8     Root    EOM Energy     Delta E   Res. Norm    Conv?
                     1   0.4602636672  -1.32e-09    4.63e-07      N
Iter=27   L=9     Root    EOM Energy     Delta E   Res. Norm    Conv?
                     1   0.4602636672   9.20e-12    2.37e-07      N
Iter=28   L=10    Root    EOM Energy     Delta E   Res. Norm    Conv?
                     1   0.4602636673   6.11e-11    1.60e-07      N
Collapsing to 2 vector(s).
Change in CC3 energy from last iterated value   -0.0000000357
Iter=29   L=2     Root    EOM Energy     Delta E   Res. Norm    Conv?
                     1   0.4602636674   1.35e-10    1.60e-07      N
Iter=30   L=3     Root    EOM Energy     Delta E   Res. Norm    Conv?
                     1   0.4602636674  -4.29e-11    1.03e-07      N
Iter=31   L=4     Root    EOM Energy     Delta E   Res. Norm    Conv?
                     1   0.4602636674   1.35e-12    5.74e-08      N
Iter=32   L=5     Root    EOM Energy     Delta E   Res. Norm    Conv?
                     1   0.4602636674   1.73e-11    2.53e-08      N
Iter=33   L=6     Root    EOM Energy     Delta E   Res. Norm    Conv?
                     1   0.4602636674   2.31e-12    1.13e-08      N
Iter=34   L=7     Root    EOM Energy     Delta E   Res. Norm    Conv?
                     1   0.4602636674   6.59e-12    5.36e-09      Y
Collapsing to only 1 vector(s).
Change in CC3 energy from last iterated value    0.0000000001

Procedure converged for 1 root(s).
Energy written to CC_INFO:Etot  -75.4721134096
States per irrep written to CC_INFO.
<R|R> =   0.9999999999999996
EOM CC3 R0 for root 0 =   0.00418453814

Final Energetic Summary for Converged Roots of Irrep B1
                     Excitation Energy              Total Energy
                (eV)     (cm^-1)     (au)             (au)
EOM State 1     12.524   101016.2   0.4602636674   -75.472113409561

Largest components of excited wave function #1:
 RIA (libdpd indices) : (cscf notation)
         1 >   0      :       3a1 >    4a1 :    0.4945310482
         1 >   2      :       3a1 >    6a1 :   -0.1694187214
         1 >   5      :       3a1 >    9a1 :   -0.1359096150
         1 >   1      :       3a1 >    5a1 :    0.1309682522
         1 >   4      :       3a1 >    8a1 :    0.0515894469
 Ria (libdpd indices) : (cscf notation)
         1 >   0      :       3a1 >    4a1 :    0.5827967981
         1 >   2      :       3a1 >    6a1 :   -0.2290572153
         1 >   5      :       3a1 >    9a1 :   -0.1704035180
         1 >   1      :       3a1 >    5a1 :   -0.1427580882
         1 >   4      :       3a1 >    8a1 :   -0.0589901811
 RIjAb (libdpd indices)     : (cscf notation)
        0   1 >   0   0     :    1b1    3a1 >    4a1    1b1 :   -0.3349422791
        0   1 >   2   0     :    1b1    3a1 >    6a1    1b1 :    0.1149300324
        0   1 >   0   1     :    1b1    3a1 >    4a1    2b1 :    0.0963554449
        0   1 >   5   0     :    1b1    3a1 >    9a1    1b1 :    0.0926012802
        0   1 >   1   0     :    1b1    3a1 >    5a1    1b1 :   -0.0865622432
 RIJAB (libdpd indices)     : (cscf notation)
        0   1 >   3   0     :    1b1    3a1 >    5b1    4a1 :   -0.0196907723
        0   1 >   0   0     :    1b1    3a1 >    2b1    4a1 :   -0.0193949522
        0   1 >   4   0     :    1b2    3a1 >    6b2    4a1 :    0.0189812169
        0   1 >   1   0     :    1b2    3a1 >    3b2    4a1 :   -0.0183448044
        0   1 >   0   0     :    1b2    3a1 >    2b2    4a1 :   -0.0172728588
 Rijab (libdpd indices)     : (cscf notation)
        0   1 >   4   0     :    1b2    3a1 >    6b2    4a1 :    0.0239201673
        0   1 >   1   0     :    1b2    3a1 >    3b2    4a1 :   -0.0233728276
        0   1 >   0   0     :    1b2    3a1 >    2b2    4a1 :   -0.0207669484
        0   1 >   8   0     :    1b2    3a1 >   10b2    4a1 :    0.0132966705
        1   0 >   5   0     :    3a1    2a1 >    9a1    4a1 :    0.0095512627

	Putting into environment energy for root of R irrep 1 and root 1.
	Putting into environment CURRENT ENERGY:              -75.4721134096

	Total # of sigma evaluations: 68

*** tstop() called on node20 at Sat Nov  5 10:27:48 2022
Module time:
	user time   =    1418.80 seconds =      23.65 minutes
	system time =      89.25 seconds =       1.49 minutes
	total time  =        379 seconds =       6.32 minutes
Total time:
	user time   =    1867.79 seconds =      31.13 minutes
	system time =     123.10 seconds =       2.05 minutes
	total time  =        503 seconds =       8.38 minutes

    Psi4 stopped on: Saturday, 05 November 2022 10:27AM
    Psi4 wall time for execution: 0:08:23.58

*** Psi4 exiting successfully. Buy a developer a beer!
