
    -----------------------------------------------------------------------
          Psi4: An Open-Source Ab Initio Electronic Structure Package
                               Psi4 1.2 release

                         Git: Rev {HEAD} 9d4a61c 


    R. M. Parrish, L. A. Burns, D. G. A. Smith, A. C. Simmonett,
    A. E. DePrince III, E. G. Hohenstein, U. Bozkaya, A. Yu. Sokolov,
    R. Di Remigio, R. M. Richard, J. F. Gonthier, A. M. James,
    H. R. McAlexander, A. Kumar, M. Saitow, X. Wang, B. P. Pritchard,
    P. Verma, H. F. Schaefer III, K. Patkowski, R. A. King, E. F. Valeev,
    F. A. Evangelista, J. M. Turney, T. D. Crawford, and C. D. Sherrill,
    J. Chem. Theory Comput. 13(7) pp 3185--3197 (2017).
    (doi: 10.1021/acs.jctc.7b00174)


                         Additional Contributions by
    P. Kraus, H. Kruse, M. H. Lechner, M. C. Schieber, and R. A. Shaw

    -----------------------------------------------------------------------


    Psi4 started on: Saturday, 05 November 2022 10:19AM

    Process ID: 13813
    Host:       node20
    PSIDATADIR: /home/qc/psi4conda/share/psi4
    Memory:     500.0 MiB
    Threads:    4
    
  ==> Input File <==

--------------------------------------------------------------------------
#h2o SPECIAL eom-cc3
memory 31950 mb

molecule h2o{
1 2
H        0.0000000000       -1.5534694038       -0.9679022204
O        0.0000000000        0.0000000000        0.1195402509
H        0.0000000000        1.5534694038       -0.9679022204

units bohr
}
 
set globals {
 reference rohf
 basis aug-cc-pvtz-dk
 freeze_core true
 cachelevel=0
 relativistic x2c
 maxiter=500
 dertype none
 ints_tolerance 20
 roots_per_irrep = [0,0,1,0]
}

set scf d_convergence 12
set ccenergy r_convergence 12
set cceom r_convergence 8

energy('eom-cc3')--------------------------------------------------------------------------

  Memory set to  29.756 GiB by Python driver.

*** tstart() called on node20
*** at Sat Nov  5 10:19:25 2022

   => Loading Basis Set <=

    Name: AUG-CC-PVTZ-DK
    Role: ORBITAL
    Keyword: BASIS
    atoms 1, 3 entry H          line    45 file /home/qc/psi4conda/share/psi4/basis/aug-cc-pvtz-dk.gbs 
    atoms 2    entry O          line   324 file /home/qc/psi4conda/share/psi4/basis/aug-cc-pvtz-dk.gbs 


         ---------------------------------------------------------
                                   SCF
            by Justin Turney, Rob Parrish, Andy Simmonett
                             and Daniel Smith
                             ROHF Reference
                        4 Threads,  30469 MiB Core
         ---------------------------------------------------------

  ==> Geometry <==

    Molecular point group: c2v
    Full point group: C2v

    Geometry (in Bohr), charge = 1, multiplicity = 2:

       Center              X                  Y                   Z               Mass       
    ------------   -----------------  -----------------  -----------------  -----------------
         H            0.000000000000    -1.553469403800    -0.965741484933     1.007825032070
         O            0.000000000000     0.000000000000     0.121700986367    15.994914619560
         H           -0.000000000000     1.553469403800    -0.965741484933     1.007825032070

  Running in c2v symmetry.

  Rotational constants: A =     28.43884  B =     12.37581  C =      8.62322 [cm^-1]
  Rotational constants: A = 852575.04913  B = 371017.49516  C = 258517.64187 [MHz]
  Nuclear repulsion =    8.759526026168901

  Charge       = 1
  Multiplicity = 2
  Electrons    = 9
  Nalpha       = 5
  Nbeta        = 4

  ==> Algorithm <==

  SCF Algorithm Type is PK.
  DIIS enabled.
  MOM disabled.
  Fractional occupation disabled.
  Guess Type is GWH.
  Energy threshold   = 1.00e-08
  Density threshold  = 1.00e-12
  Integral threshold = 1.00e-20

  ==> Primary Basis <==

  Basis Set: AUG-CC-PVTZ-DK
    Blend: AUG-CC-PVTZ-DK
    Number of shells: 32
    Number of basis function: 92
    Number of Cartesian functions: 105
    Spherical Harmonics?: true
    Max angular momentum: 3

   => Loading Basis Set <=

    Name: (AUG-CC-PVTZ-DK AUX)
    Role: DECON
    Keyword: BASIS_RELATIVISTIC
    atoms 1, 3 entry H          line    45 file /home/qc/psi4conda/share/psi4/basis/aug-cc-pvtz-dk.gbs func decontract
    atoms 2    entry O          line   324 file /home/qc/psi4conda/share/psi4/basis/aug-cc-pvtz-dk.gbs func decontract

  ==> Pre-Iterations <==

   -------------------------------------------------------
    Irrep   Nso     Nmo     Nalpha   Nbeta   Ndocc  Nsocc
   -------------------------------------------------------
     A1        35      35       0       0       0       0
     A2        12      12       0       0       0       0
     B1        18      18       0       0       0       0
     B2        27      27       0       0       0       0
   -------------------------------------------------------
    Total      92      92       5       4       4       1
   -------------------------------------------------------

 OEINTS: Using relativistic (X2C) overlap, kinetic, and potential integrals.
         ------------------------------------------------------------
         Spin-Free X2C Integrals at the One-Electron Level (SFX2C-1e)
                 by Prakash Verma and Francesco A. Evangelista
         ------------------------------------------------------------

  ==> X2C Options <==

    Computational Basis: AUG-CC-PVTZ-DK
    X2C Basis: (AUG-CC-PVTZ-DK AUX)
    The X2C Hamiltonian will be computed in the X2C Basis

    Comparing only 35 out of 45 elements of H_Dirac

    Comparing only 18 out of 20 elements of H_Dirac

    Comparing only 27 out of 31 elements of H_Dirac

    The 1-norm of |H_X2C - H_Dirac| is: 6.687313088839

    WARNING: The X2C and Dirac Hamiltonians have substatially different eigenvalues!
             This is probably caused by the recontraction of the basis set.

  ==> Integral Setup <==

  Using in-core PK algorithm.
   Calculation information:
      Number of atoms:                   3
      Number of AO shells:              32
      Number of primitives:             52
      Number of atomic orbitals:       105
      Number of basis functions:        92

      Integral cutoff                 1.00e-20
      Number of threads:                 4

  Performing in-core PK
  Using 18305562 doubles for integral storage.
  We computed 171364 shell quartets total.
  Whereas there are 139656 unique shell quartets.
    22.70 percent of shell quartets recomputed by reordering.

  ==> DiskJK: Disk-Based J/K Matrices <==

    J tasked:                  Yes
    K tasked:                  Yes
    wK tasked:                  No
    Memory (MB):             22852
    Schwarz Cutoff:          1E-20

    OpenMP threads:              4

  Minimum eigenvalue in the overlap matrix is 4.1127622487E-04.
  Using Symmetric Orthogonalization.

  SCF Guess: Generalized Wolfsberg-Helmholtz.

  ==> Iterations <==

                        Total Energy        Delta E     RMS |[F,P]|

   @ROHF iter   1:   -69.35221027570570   -6.93522e+01   1.02746e-01 
   @ROHF iter   2:   -75.57062443041966   -6.21841e+00   1.34242e-02 DIIS
   @ROHF iter   3:   -75.68972386407768   -1.19099e-01   3.48467e-03 DIIS
   @ROHF iter   4:   -75.70221909661642   -1.24952e-02   1.23913e-03 DIIS
   @ROHF iter   5:   -75.70451827358792   -2.29918e-03   3.52877e-04 DIIS
   @ROHF iter   6:   -75.70471535766475   -1.97084e-04   6.64716e-05 DIIS
   @ROHF iter   7:   -75.70472487711494   -9.51945e-06   9.85187e-06 DIIS
   @ROHF iter   8:   -75.70472512763540   -2.50520e-07   1.49954e-06 DIIS
   @ROHF iter   9:   -75.70472513233825   -4.70285e-09   3.51228e-07 DIIS
   @ROHF iter  10:   -75.70472513249204   -1.53790e-10   7.59714e-08 DIIS
   @ROHF iter  11:   -75.70472513249923   -7.19069e-12   1.11251e-08 DIIS
   @ROHF iter  12:   -75.70472513249931   -7.10543e-14   1.39227e-09 DIIS
   @ROHF iter  13:   -75.70472513249941   -9.94760e-14   1.69395e-10 DIIS
   @ROHF iter  14:   -75.70472513249946   -5.68434e-14   2.34208e-11 DIIS
   @ROHF iter  15:   -75.70472513249941    5.68434e-14   5.04582e-12 DIIS
   @ROHF iter  16:   -75.70472513249932    8.52651e-14   7.73544e-13 DIIS

  ==> Post-Iterations <==

    Orbital Energies [Eh]
    ---------------------

    Doubly Occupied:                                                      

       1A1   -21.117392     2A1    -1.798268     1B2    -1.173669  
       3A1    -1.045674  

    Singly Occupied:                                                      

       1B1    -0.685053  

    Virtual:                                                              

       4A1    -0.181552     2B2    -0.116981     5A1    -0.060789  
       2B1    -0.057528     6A1    -0.042765     3B2    -0.027674  
       4B2     0.010548     7A1     0.017741     1A2     0.036290  
       3B1     0.070402     8A1     0.072863     5B2     0.162541  
       9A1     0.177309     6B2     0.194266     7B2     0.323667  
      10A1     0.346876    11A1     0.409369     4B1     0.422733  
       2A2     0.422856    12A1     0.514890     5B1     0.554554  
      13A1     0.584414     8B2     0.596066     6B1     0.608500  
       3A2     0.622737     9B2     0.661394    14A1     0.668881  
      15A1     0.727802    10B2     0.742245     7B1     0.748341  
      11B2     0.828138    16A1     0.858422     4A2     0.869657  
      12B2     0.966180     5A2     1.164679     8B1     1.223839  
      17A1     1.249980    13B2     1.401716    18A1     1.443663  
      14B2     1.579486    19A1     1.678686     9B1     1.831334  
       6A2     1.898256    20A1     1.943236    21A1     1.978326  
      10B1     2.001229    15B2     2.051157    22A1     2.098563  
      11B1     2.308911    23A1     2.309215    16B2     2.326907  
       7A2     2.448994    17B2     2.494242    18B2     3.153663  
      24A1     3.303114     8A2     3.572734    12B1     3.581431  
      19B2     3.765928    25A1     3.774855    13B1     3.896114  
      14B1     3.966064     9A2     3.969313    20B2     4.040797  
      26A1     4.088520    27A1     4.192993    21B2     4.259384  
      22B2     4.595819    10A2     4.628111    28A1     4.721528  
      23B2     4.836249    15B1     4.905320    29A1     5.220296  
      30A1     5.590814    24B2     6.071311    16B1     6.201722  
      31A1     6.284204    17B1     6.598741    11A2     6.699937  
      18B1     6.705244    32A1     6.768241    25B2     6.842992  
      12A2     6.853634    33A1     6.962376    26B2     7.292490  
      34A1     7.405483    27B2     8.056378    35A1    14.027157  

    Final Occupation by Irrep:
             A1    A2    B1    B2 
    DOCC [     3,    0,    0,    1 ]
    SOCC [     0,    0,    1,    0 ]

  Energy converged.

  @ROHF Final Energy:   -75.70472513249932

   => Energetics <=

    Nuclear Repulsion Energy =              8.7595260261689010
    One-Electron Energy =                -117.5516854602273895
    Two-Electron Energy =                  33.0874343015591634
    Total Energy =                        -75.7047251324993340



Properties will be evaluated at   0.000000,   0.000000,   0.000000 [a0]

Properties computed using the SCF density matrix

  Nuclear Dipole Moment: [e a0]
     X:     0.0000      Y:     0.0000      Z:    -0.9579

  Electronic Dipole Moment: [e a0]
     X:     0.0000      Y:     0.0000      Z:    -0.0060

  Dipole Moment: [e a0]
     X:     0.0000      Y:     0.0000      Z:    -0.9638     Total:     0.9638

  Dipole Moment: [D]
     X:     0.0000      Y:     0.0000      Z:    -2.4498     Total:     2.4498


*** tstop() called on node20 at Sat Nov  5 10:19:26 2022
Module time:
	user time   =       5.15 seconds =       0.09 minutes
	system time =       0.17 seconds =       0.00 minutes
	total time  =          1 seconds =       0.02 minutes
Total time:
	user time   =       5.15 seconds =       0.09 minutes
	system time =       0.17 seconds =       0.00 minutes
	total time  =          1 seconds =       0.02 minutes
   => Loading Basis Set <=

    Name: (AUG-CC-PVTZ-DK AUX)
    Role: DECON
    Keyword: BASIS_RELATIVISTIC
    atoms 1, 3 entry H          line    45 file /home/qc/psi4conda/share/psi4/basis/aug-cc-pvtz-dk.gbs func decontract
    atoms 2    entry O          line   324 file /home/qc/psi4conda/share/psi4/basis/aug-cc-pvtz-dk.gbs func decontract

 MINTS: Wrapper to libmints.
   by Justin Turney

   Calculation information:
      Number of threads:                 4
      Number of atoms:                   3
      Number of AO shells:              32
      Number of SO shells:              23
      Number of primitives:             52
      Number of atomic orbitals:       105
      Number of basis functions:        92

      Number of irreps:                  4
      Integral cutoff                 1.00e-20
      Number of functions per irrep: [  35   12   18   27 ]

 OEINTS: Using relativistic (X2C) overlap, kinetic, and potential integrals.
         ------------------------------------------------------------
         Spin-Free X2C Integrals at the One-Electron Level (SFX2C-1e)
                 by Prakash Verma and Francesco A. Evangelista
         ------------------------------------------------------------

  ==> X2C Options <==

    Computational Basis: AUG-CC-PVTZ-DK
    X2C Basis: (AUG-CC-PVTZ-DK AUX)
    The X2C Hamiltonian will be computed in the X2C Basis

    Comparing only 35 out of 45 elements of H_Dirac

    Comparing only 18 out of 20 elements of H_Dirac

    Comparing only 27 out of 31 elements of H_Dirac

    The 1-norm of |H_X2C - H_Dirac| is: 6.687313088839

    WARNING: The X2C and Dirac Hamiltonians have substatially different eigenvalues!
             This is probably caused by the recontraction of the basis set.

 OEINTS: Overlap, kinetic, potential, dipole, and quadrupole integrals
         stored in file 35.

      Computing two-electron integrals...done
      Computed 2236052 non-zero two-electron integrals.
        Stored in file 33.


*** tstart() called on node20
*** at Sat Nov  5 10:19:27 2022


	Wfn Parameters:
	--------------------
	Wavefunction         = CC3
	Number of irreps     = 4
	Number of MOs        = 92
	Number of active MOs = 91
	AO-Basis             = NONE
	Semicanonical        = true
	Reference            = ROHF changed to UHF for semicanonical orbitals
	Print Level          = 1

	IRREP	# MOs	# FZDC	# DOCC	# SOCC	# VIRT	# FZVR
	-----	-----	------	------	------	------	------
	 A1	   35	    1	    2	    0	    32	    0
	 A2	   12	    0	    0	    0	    12	    0
	 B1	   18	    0	    0	    1	    17	    0
	 B2	   27	    0	    1	    0	    26	    0
	Transforming integrals...
	IWL integrals will be deleted.
	(OO|OO)...
	Presorting SO-basis two-electron integrals.
	Sorting File: SO Ints (nn|nn) nbuckets = 1
	Transforming the one-electron integrals and constructing Fock matrices
	Starting AA/AB first half-transformation.
	Sorting AA/AB half-transformed integrals.
	Starting BB first half-transformation.
	Sorting BB half-transformed integrals.
	First half integral transformation complete.
	Starting AA second half-transformation.
	Starting AB second half-transformation.
	Starting BB second half-transformation.
	Two-electron integral transformation complete.
	(OO|OV)...
	Starting AA second half-transformation.
	Starting AB second half-transformation.
	Starting BB second half-transformation.
	Two-electron integral transformation complete.
	(OO|VV)...
	Starting AA second half-transformation.
	Starting AB second half-transformation.
	Starting BB second half-transformation.
	Two-electron integral transformation complete.
	(OV|OO)...
	Starting AA/AB first half-transformation.
	Sorting AA/AB half-transformed integrals.
	Starting BB first half-transformation.
	Sorting BB half-transformed integrals.
	First half integral transformation complete.
	Starting AA second half-transformation.
	Starting AB second half-transformation.
	Starting BB second half-transformation.
	Two-electron integral transformation complete.
	(OV|OV)...
	Starting AA second half-transformation.
	Starting AB second half-transformation.
	Starting BB second half-transformation.
	Two-electron integral transformation complete.
	(OV|VV)...
	Starting AA second half-transformation.
	Starting AB second half-transformation.
	Starting BB second half-transformation.
	Two-electron integral transformation complete.
	(VV|OO)...
	Starting AA/AB first half-transformation.
	Sorting AA/AB half-transformed integrals.
	Starting BB first half-transformation.
	Sorting BB half-transformed integrals.
	First half integral transformation complete.
	Starting AA second half-transformation.
	Starting AB second half-transformation.
	Starting BB second half-transformation.
	Two-electron integral transformation complete.
	(VV|OV)...
	Starting AA second half-transformation.
	Starting AB second half-transformation.
	Starting BB second half-transformation.
	Two-electron integral transformation complete.
	(VV|VV)...
	Starting AA second half-transformation.
	Starting AB second half-transformation.
	Starting BB second half-transformation.
	Two-electron integral transformation complete.
	Frozen core energy     =    -61.26048867779651

	Size of irrep 0 of <AB|CD> integrals:      1.047 (MW) /      8.372 (MB)
	Size of irrep 1 of <AB|CD> integrals:      0.682 (MW) /      5.458 (MB)
	Size of irrep 2 of <AB|CD> integrals:      0.733 (MW) /      5.862 (MB)
	Size of irrep 3 of <AB|CD> integrals:      1.073 (MW) /      8.586 (MB)
	Total:                                     3.535 (MW) /     28.279 (MB)

	Size of irrep 0 of <ab|cd> integrals:      1.082 (MW) /      8.653 (MB)
	Size of irrep 1 of <ab|cd> integrals:      0.726 (MW) /      5.807 (MB)
	Size of irrep 2 of <ab|cd> integrals:      0.789 (MW) /      6.308 (MB)
	Size of irrep 3 of <ab|cd> integrals:      1.098 (MW) /      8.786 (MB)
	Total:                                     3.694 (MW) /     29.555 (MB)

	Size of irrep 0 of <Ab|Cd> integrals:      4.622 (MW) /     36.980 (MB)
	Size of irrep 1 of <Ab|Cd> integrals:      2.816 (MW) /     22.525 (MB)
	Size of irrep 2 of <Ab|Cd> integrals:      3.042 (MW) /     24.332 (MB)
	Size of irrep 3 of <Ab|Cd> integrals:      4.343 (MW) /     34.744 (MB)
	Total:                                    14.823 (MW) /    118.582 (MB)

	Size of irrep 0 of <IA|BC> integrals:      0.228 (MW) /      1.826 (MB)
	Size of irrep 1 of <IA|BC> integrals:      0.111 (MW) /      0.885 (MB)
	Size of irrep 2 of <IA|BC> integrals:      0.134 (MW) /      1.068 (MB)
	Size of irrep 3 of <IA|BC> integrals:      0.199 (MW) /      1.591 (MB)
	Total:                                     0.671 (MW) /      5.371 (MB)

	Size of irrep 0 of <ia|bc> integrals:      0.195 (MW) /      1.561 (MB)
	Size of irrep 1 of <ia|bc> integrals:      0.072 (MW) /      0.573 (MB)
	Size of irrep 2 of <ia|bc> integrals:      0.085 (MW) /      0.682 (MB)
	Size of irrep 3 of <ia|bc> integrals:      0.176 (MW) /      1.409 (MB)
	Total:                                     0.528 (MW) /      4.224 (MB)

	Size of irrep 0 of <Ia|Bc> integrals:      0.232 (MW) /      1.858 (MB)
	Size of irrep 1 of <Ia|Bc> integrals:      0.114 (MW) /      0.913 (MB)
	Size of irrep 2 of <Ia|Bc> integrals:      0.140 (MW) /      1.116 (MB)
	Size of irrep 3 of <Ia|Bc> integrals:      0.200 (MW) /      1.601 (MB)
	Total:                                     0.686 (MW) /      5.487 (MB)

	Size of irrep 0 of <iA|bC> integrals:      0.194 (MW) /      1.548 (MB)
	Size of irrep 1 of <iA|bC> integrals:      0.069 (MW) /      0.550 (MB)
	Size of irrep 2 of <iA|bC> integrals:      0.080 (MW) /      0.642 (MB)
	Size of irrep 3 of <iA|bC> integrals:      0.175 (MW) /      1.400 (MB)
	Total:                                     0.518 (MW) /      4.141 (MB)

	Size of irrep 0 of tIjAb amplitudes:       0.011 (MW) /      0.086 (MB)
	Size of irrep 1 of tIjAb amplitudes:       0.002 (MW) /      0.013 (MB)
	Size of irrep 2 of tIjAb amplitudes:       0.003 (MW) /      0.028 (MB)
	Size of irrep 3 of tIjAb amplitudes:       0.008 (MW) /      0.067 (MB)
	Total:                                     0.024 (MW) /      0.194 (MB)

	Nuclear Rep. energy          =      8.75952602616890
	SCF energy                   =    -75.70472513249932
	One-electron energy          =    -37.26552731363747
	Two-electron (AA) energy     =      3.69834406825542
	Two-electron (BB) energy     =      1.75157355563691
	Two-electron (AB) energy     =      8.61184720887370
	Two-electron energy          =     14.06176483276603
	Reference energy             =    -75.70472513249905

*** tstop() called on node20 at Sat Nov  5 10:19:30 2022
Module time:
	user time   =       2.05 seconds =       0.03 minutes
	system time =       1.01 seconds =       0.02 minutes
	total time  =          3 seconds =       0.05 minutes
Total time:
	user time   =       8.70 seconds =       0.14 minutes
	system time =       1.25 seconds =       0.02 minutes
	total time  =          5 seconds =       0.08 minutes

*** tstart() called on node20
*** at Sat Nov  5 10:19:30 2022

            **************************
            *                        *
            *        CCENERGY        *
            *                        *
            **************************

    Nuclear Rep. energy (wfn)     =    8.759526026168901
    SCF energy          (wfn)     =  -75.704725132499320
    Reference energy    (file100) =  -75.704725132499050

    Input parameters:
    -----------------
    Wave function   =     CC3
    Reference wfn   =     ROHF changed to UHF for Semicanonical Orbitals
    Brueckner       =     No
    Memory (Mbytes) =     31950.0
    Maxiter         =    500
    R_Convergence   =     1.0e-12
    E_Convergence   =     1.0e-06
    Restart         =     Yes
    DIIS            =     Yes
    AO Basis        =     NONE
    ABCD            =     NEW
    Cache Level     =     0
    Cache Type      =     LRU
    Print Level     =     1
    Num. of threads =     4
    # Amps to Print =     10
    Print MP2 Amps? =     No
    Analyze T2 Amps =     No
    Print Pair Ener =     No
    Local CC        =     No
    T3 Ws incore    =     No
    SCS-MP2         =     False
    SCSN-MP2        =     False
    SCS-CCSD        =     False

MP2 correlation energy -0.2072577953382017
                Solving CC Amplitude Equations
                ------------------------------
  Iter             Energy              RMS        T1Diag      D1Diag    New D1Diag    D2Diag
  ----     ---------------------    ---------   ----------  ----------  ----------   --------
     0        -0.207316289267583    0.000e+00    0.013510    0.000000    0.000000    0.000000
     1        -0.222278322939336    3.341e-02    0.016669    0.000000    0.000000    0.000000
     2        -0.227303177432105    1.219e-02    0.018410    0.000000    0.000000    0.000000
     3        -0.227603152117753    4.136e-03    0.018983    0.000000    0.000000    0.000000
     4        -0.227614630237882    1.798e-03    0.019053    0.000000    0.000000    0.000000
     5        -0.227651309227177    7.471e-04    0.019025    0.000000    0.000000    0.000000
     6        -0.227654868917123    2.482e-04    0.018990    0.000000    0.000000    0.000000
     7        -0.227657167182695    9.552e-05    0.018979    0.000000    0.000000    0.000000
     8        -0.227657006268271    3.340e-05    0.018977    0.000000    0.000000    0.000000
     9        -0.227656968368110    1.118e-05    0.018977    0.000000    0.000000    0.000000
    10        -0.227657090995912    4.125e-06    0.018978    0.000000    0.000000    0.000000
    11        -0.227657025506667    1.398e-06    0.018978    0.000000    0.000000    0.000000
    12        -0.227657007609744    4.219e-07    0.018978    0.000000    0.000000    0.000000
    13        -0.227656996822610    1.164e-07    0.018978    0.000000    0.000000    0.000000
    14        -0.227656996432182    3.480e-08    0.018978    0.000000    0.000000    0.000000
    15        -0.227656996375838    1.326e-08    0.018978    0.000000    0.000000    0.000000
    16        -0.227656996293465    6.006e-09    0.018978    0.000000    0.000000    0.000000
    17        -0.227656996185665    2.719e-09    0.018978    0.000000    0.000000    0.000000
    18        -0.227656996118277    1.131e-09    0.018978    0.000000    0.000000    0.000000
    19        -0.227656996107964    4.570e-10    0.018978    0.000000    0.000000    0.000000
    20        -0.227656996109122    1.606e-10    0.018978    0.000000    0.000000    0.000000
    21        -0.227656996108326    5.558e-11    0.018978    0.000000    0.000000    0.000000
    22        -0.227656996108423    1.950e-11    0.018978    0.000000    0.000000    0.000000
    23        -0.227656996108397    5.837e-12    0.018978    0.000000    0.000000    0.000000
    24        -0.227656996108436    1.917e-12    0.018978    0.000000    0.000000    0.000000
    25        -0.227656996108443    5.520e-13    0.018978    0.000000    0.000000    0.000000

    Iterations converged.


    Largest TIA Amplitudes:
              0  14        -0.0097159946
              0   0        -0.0089525274
              0   6         0.0083973709
              0  15        -0.0082920699
              0  17         0.0078355102
              0   5         0.0078298554
              0   7         0.0076559501
              0   2         0.0073192191
              2  44         0.0062325291
              1  17        -0.0060990053

    Largest Tia Amplitudes:
              1   1         0.0108552864
              2  63         0.0105897043
              0   0        -0.0100525571
              0   2         0.0097783138
              2  62         0.0093866389
              2  66         0.0086969746
              1   0        -0.0083133402
              0  17         0.0081828887
              0   7         0.0080884697
              1   4         0.0080148764

    Largest TIJAB Amplitudes:
      2   1  47   9         0.0083062345
      3   2  33   6         0.0079467608
      3   2  65  47        -0.0079450129
      2   1  51  17        -0.0078575669
      3   1  65   9         0.0070630907
      3   2  62  47        -0.0070223146
      2   1  46   7         0.0069694101
      2   1  48   9        -0.0069352261
      3   2  61  47        -0.0068801136
      2   1  44   9         0.0066591042

    Largest Tijab Amplitudes:
      1   0  47  44         0.0081283069
      2   0  44  33         0.0077637396
      1   0  52  44        -0.0074893607
      2   1  66   9        -0.0071422567
      2   1  63   6        -0.0071064100
      2   1  66   6        -0.0068034004
      2   1  62   9        -0.0064019914
      2   1  67   6        -0.0063826710
      2   1  66   1        -0.0061406949
      2   0  44  36         0.0060439799

    Largest TIjAb Amplitudes:
      3   2  65  66        -0.0192153518
      1   1   9   9         0.0179169970
      3   2  62  66        -0.0174705549
      3   2  65  63        -0.0173607540
      2   0   0  44        -0.0167409549
      3   2  62  63        -0.0162326936
      2   0   6  44         0.0159355406
      3   2  61  66        -0.0155027603
      2   0  14  44        -0.0154833017
      1   0  51  44        -0.0150732598

    SCF energy       (wfn)                    =  -75.704725132499320
    Reference energy (file100)                =  -75.704725132499050

    Opposite-spin MP2 correlation energy      =   -0.158222319142344
    Same-spin MP2 correlation energy          =   -0.045428965233235
    MP2 correlation energy                    =   -0.207257795338202
      * MP2 total energy                      =  -75.911982927837258
    CC3 correlation energy                    =   -0.227656996108443
      * CC3 total energy                      =  -75.932382128607486


*** tstop() called on node20 at Sat Nov  5 10:21:28 2022
Module time:
	user time   =     435.05 seconds =       7.25 minutes
	system time =      33.78 seconds =       0.56 minutes
	total time  =        118 seconds =       1.97 minutes
Total time:
	user time   =     443.76 seconds =       7.40 minutes
	system time =      35.03 seconds =       0.58 minutes
	total time  =        123 seconds =       2.05 minutes

*** tstart() called on node20
*** at Sat Nov  5 10:21:28 2022


			**************************
			*                        *
			*         CCHBAR         *
			*                        *
			**************************

Dots of (HeT1)c in names "CC3 Wxxx" in CC3_HET1 
Wamef terms
	<WAMEF|WAMEF> =   13.2900826210
	<Wamef|Wamef> =   10.8463859757
	<WAmEf|WAmEf> =    9.3065813829
	<WaMeF|WaMeF> =   12.6466470558
Wmnie terms
	<WMNIE (M>N,IE)|WMNIE> =    0.7441571999
	<Wmnie (m>n,ie)|Wmnie> =    0.3277668082
	<WMnIe (Mn,Ie)|WMnIe> =    0.7250175313
	<WmNiE (mN,iE)|WmNiE> =    0.6132123770
	<WMNIE(M>N,EI)|WMNIE(M>N,EI)> =    0.7441571999
	<Wmnie(m>n,ei)|Wmnie(m>n,ei)> =    0.3277668082
	<WMnIe(Mn,eI)|WMnIe(Mn,eI)> =    0.7250175313
	<WmNiE(mN,Ei)|WmNiE(mN,Ei)> =    0.6132123770
Doing Wmnij terms.
	<WMNIJ (M>N,I>J)|WMNIJ> =    9.2160479340
	<Wmnij (m>n,i>j)|Wmnij> =    4.0396244707
	<WMnIj (Mn,Ij)|WMnIj> =    6.3807360192
Doing Wmbij terms.
	<WMBIJ (MB,I>J)|WMBIJ> =    0.7495472119
	<WMBIJ (I>J,MB)|WMBIJ> =    0.7495472119
	<Wmbij (mb,i>j)|Wmbij> =    0.3336243259
	<Wmbij (i>j,mb)|Wmbij> =    0.3336243259
	<WMbIj (Mb,Ij)|WMbIj> =    0.7285090541
	<WMbIj (Ij,Mb)|WMbIj> =    0.7285090541
	<WmBiJ (mB,iJ)|WmBiJ> =    0.6165926317
	<WmBiJ (iJ,mB)|WmBiJ> =    0.6165926317
Doing Wmbej terms.
	<WMBEJ (all ME,JB)|WMBEJ> =   81.7492257262
	<Wmbej|Wmbej> =   61.8710617997
	<WMbEj|WMbEj> =    1.0287226156
	<WmBeJ|WmBeJ> =    1.0382842405
	<WMbeJ|WMbeJ> =   94.7586530777
	<WmBEj|WmBEj> =   67.8493649730
Doing Wabei terms.
	<WABEI (IE,B>A) |WABEI> =   13.3441298380
	<Wabei (ie,b>a)|Wabei> =   10.9462094881
	<WAbEi (iE,bA)|WAbEi> =    9.3824235440
	<WAbEi (iE,Ba)|WAbEi> =   12.6819708472

*** tstop() called on node20 at Sat Nov  5 10:21:29 2022
Module time:
	user time   =       3.39 seconds =       0.06 minutes
	system time =       0.62 seconds =       0.01 minutes
	total time  =          1 seconds =       0.02 minutes
Total time:
	user time   =     447.15 seconds =       7.45 minutes
	system time =      35.65 seconds =       0.59 minutes
	total time  =        124 seconds =       2.07 minutes

*** tstart() called on node20
*** at Sat Nov  5 10:21:29 2022


	**********************************************************
	*  CCEOM: An Equation of Motion Coupled Cluster Program  *
	**********************************************************

	Nuclear Rep. energy (wfn)     =    8.759526026168901
	SCF energy          (wfn)     =  -75.704725132499320
	Reference energy    (file100) =  -75.704725132499050
	CC3 energy          (file100) =   -0.227656996108443

	Input parameters:
	-----------------
	Reference wfn   = ROHF changed to UHF for Semicanonical Orbitals
	Reference EOM wfn=     UHF
	Memory (Mbytes) =  31950.0
	ABCD            =     NEW
	Cache Level     =    0
	Cache Type      =     LRU
	T3 Ws incore  =      No
	Num. of threads =     4
	Local CC        =     No


	CCEOM parameters:
	-----------------
	States sought per irrep     = A1 0, A2 0, B1 1, B2 0,
	Max. number of iterations   =   500
	Vectors stored per root     =    12
	Print HbarSS iterations?    =     0
	Excitation range for HBarSS =     2
	Eigenvalue tolerance        = 1.0e-06
	Eigenvalue toleranceSS      = 1.0e-06
	Residual vector tolerance   = 1.0e-08
	Residual vector toleranceSS = 1.0e-06
	Complex tolerance           = 1.0e-12
	Root for properties         =     1
	Sym of state for properties =     A1
	Guess vectors taken from    = SINGLES
	Restart EOM CC3             = NO
	Collapse with last vector   = YES


Symmetry of ground state: B1
Symmetry of excited state: B1
Symmetry of right eigenvector: A1
Obtaining initial guess from singles-singles block of Hbar...Done.

Iter=1    L=1     Root    EOM Energy     Delta E   Res. Norm    Conv?
                     1   0.5750469329   5.75e-01    5.14e-01      N
Iter=2    L=2     Root    EOM Energy     Delta E   Res. Norm    Conv?
                     1   0.4834289115  -9.16e-02    9.74e-02      N
Iter=3    L=3     Root    EOM Energy     Delta E   Res. Norm    Conv?
                     1   0.4772323392  -6.20e-03    6.36e-02      N
Iter=4    L=4     Root    EOM Energy     Delta E   Res. Norm    Conv?
                     1   0.4740364896  -3.20e-03    4.61e-02      N
Iter=5    L=5     Root    EOM Energy     Delta E   Res. Norm    Conv?
                     1   0.4728255475  -1.21e-03    2.69e-02      N
Iter=6    L=6     Root    EOM Energy     Delta E   Res. Norm    Conv?
                     1   0.4723929279  -4.33e-04    1.35e-02      N
Iter=7    L=7     Root    EOM Energy     Delta E   Res. Norm    Conv?
                     1   0.4722543212  -1.39e-04    8.77e-03      N
Iter=8    L=8     Root    EOM Energy     Delta E   Res. Norm    Conv?
                     1   0.4721786124  -7.57e-05    6.20e-03      N
Iter=9    L=9     Root    EOM Energy     Delta E   Res. Norm    Conv?
                     1   0.4721432620  -3.54e-05    3.80e-03      N
Iter=10   L=10    Root    EOM Energy     Delta E   Res. Norm    Conv?
                     1   0.4721324469  -1.08e-05    2.95e-03      N
Iter=11   L=11    Root    EOM Energy     Delta E   Res. Norm    Conv?
                     1   0.4721225502  -9.90e-06    2.39e-03      N
Iter=12   L=12    Root    EOM Energy     Delta E   Res. Norm    Conv?
                     1   0.4721189423  -3.61e-06    1.38e-03      N
Iter=13   L=2     Root    EOM Energy     Delta E   Res. Norm    Conv?
                     1   0.4721189423   7.22e-16    1.38e-03      N
Iter=14   L=3     Root    EOM Energy     Delta E   Res. Norm    Conv?
                     1   0.4721181185  -8.24e-07    6.70e-04      N
Iter=15   L=4     Root    EOM Energy     Delta E   Res. Norm    Conv?
                     1   0.4721183459   2.27e-07    3.98e-04      N
Iter=16   L=5     Root    EOM Energy     Delta E   Res. Norm    Conv?
                     1   0.4721176165  -7.29e-07    2.24e-04      N
Iter=17   L=6     Root    EOM Energy     Delta E   Res. Norm    Conv?
                     1   0.4721172200  -3.96e-07    9.49e-05      N
Iter=18   L=7     Root    EOM Energy     Delta E   Res. Norm    Conv?
                     1   0.4721173178   9.78e-08    3.66e-05      N
Iter=19   L=8     Root    EOM Energy     Delta E   Res. Norm    Conv?
                     1   0.4721172749  -4.29e-08    1.45e-05      N
Iter=20   L=9     Root    EOM Energy     Delta E   Res. Norm    Conv?
                     1   0.4721172701  -4.82e-09    6.47e-06      N
Iter=21   L=10    Root    EOM Energy     Delta E   Res. Norm    Conv?
                     1   0.4721172679  -2.17e-09    2.65e-06      N
Iter=22   L=11    Root    EOM Energy     Delta E   Res. Norm    Conv?
                     1   0.4721172704   2.52e-09    9.94e-07      N
Iter=23   L=12    Root    EOM Energy     Delta E   Res. Norm    Conv?
                     1   0.4721172743   3.86e-09    4.42e-07      N
Iter=24   L=2     Root    EOM Energy     Delta E   Res. Norm    Conv?
                     1   0.4721172743   6.20e-13    4.42e-07      N
Iter=25   L=3     Root    EOM Energy     Delta E   Res. Norm    Conv?
                     1   0.4721172750   6.68e-10    3.05e-07      N
Iter=26   L=4     Root    EOM Energy     Delta E   Res. Norm    Conv?
                     1   0.4721172754   3.82e-10    2.17e-07      N
Iter=27   L=5     Root    EOM Energy     Delta E   Res. Norm    Conv?
                     1   0.4721172760   6.87e-10    1.38e-07      N
Iter=28   L=6     Root    EOM Energy     Delta E   Res. Norm    Conv?
                     1   0.4721172762   2.01e-10    8.60e-08      N
Iter=29   L=7     Root    EOM Energy     Delta E   Res. Norm    Conv?
                     1   0.4721172764   1.97e-10    5.62e-08      N
Iter=30   L=8     Root    EOM Energy     Delta E   Res. Norm    Conv?
                     1   0.4721172765   8.74e-12    3.90e-08      N
Iter=31   L=9     Root    EOM Energy     Delta E   Res. Norm    Conv?
                     1   0.4721172764  -1.83e-11    2.45e-08      N
Iter=32   L=10    Root    EOM Energy     Delta E   Res. Norm    Conv?
                     1   0.4721172764   3.80e-12    1.47e-08      N
Iter=33   L=11    Root    EOM Energy     Delta E   Res. Norm    Conv?
                     1   0.4721172764  -2.96e-11    9.48e-09      Y
Completed EOM_CCSD
Collapsing to only 1 vector(s).
Copying root 1 to CC3_MISC file.
Setting initial CC3 eigenvalue to    0.4721172764
Iter=1    L=1     Root    EOM Energy     Delta E   Res. Norm    Conv?
                     1   0.4668070874  -5.31e-03    4.35e-02      N
Iter=2    L=2     Root    EOM Energy     Delta E   Res. Norm    Conv?
                     1   0.4652565042  -1.55e-03    2.70e-02      N
Iter=3    L=3     Root    EOM Energy     Delta E   Res. Norm    Conv?
                     1   0.4638070476  -1.45e-03    4.25e-02      N
Iter=4    L=4     Root    EOM Energy     Delta E   Res. Norm    Conv?
                     1   0.4619936413  -1.81e-03    2.50e-02      N
Iter=5    L=5     Root    EOM Energy     Delta E   Res. Norm    Conv?
                     1   0.4616003584  -3.93e-04    1.30e-02      N
Iter=6    L=6     Root    EOM Energy     Delta E   Res. Norm    Conv?
                     1   0.4614703120  -1.30e-04    1.24e-02      N
Iter=7    L=7     Root    EOM Energy     Delta E   Res. Norm    Conv?
                     1   0.4613225425  -1.48e-04    9.34e-03      N
Iter=8    L=8     Root    EOM Energy     Delta E   Res. Norm    Conv?
                     1   0.4612402044  -8.23e-05    5.30e-03      N
Iter=9    L=9     Root    EOM Energy     Delta E   Res. Norm    Conv?
                     1   0.4612345889  -5.62e-06    2.38e-03      N
Iter=10   L=10    Root    EOM Energy     Delta E   Res. Norm    Conv?
                     1   0.4612335785  -1.01e-06    1.20e-03      N
Collapsing to 2 vector(s).
Change in CC3 energy from last iterated value   -0.0108836979
Iter=11   L=2     Root    EOM Energy     Delta E   Res. Norm    Conv?
                     1   0.4612612355   2.77e-05    1.20e-03      N
Iter=12   L=3     Root    EOM Energy     Delta E   Res. Norm    Conv?
                     1   0.4612590579  -2.18e-06    7.88e-04      N
Iter=13   L=4     Root    EOM Energy     Delta E   Res. Norm    Conv?
                     1   0.4612588342  -2.24e-07    4.86e-04      N
Iter=14   L=5     Root    EOM Energy     Delta E   Res. Norm    Conv?
                     1   0.4612592108   3.77e-07    2.25e-04      N
Iter=15   L=6     Root    EOM Energy     Delta E   Res. Norm    Conv?
                     1   0.4612585805  -6.30e-07    1.19e-04      N
Iter=16   L=7     Root    EOM Energy     Delta E   Res. Norm    Conv?
                     1   0.4612585648  -1.57e-08    7.44e-05      N
Iter=17   L=8     Root    EOM Energy     Delta E   Res. Norm    Conv?
                     1   0.4612588727   3.08e-07    5.48e-05      N
Iter=18   L=9     Root    EOM Energy     Delta E   Res. Norm    Conv?
                     1   0.4612589378   6.51e-08    4.65e-05      N
Iter=19   L=10    Root    EOM Energy     Delta E   Res. Norm    Conv?
                     1   0.4612589151  -2.27e-08    3.33e-05      N
Collapsing to 2 vector(s).
Change in CC3 energy from last iterated value    0.0000253366
Iter=20   L=2     Root    EOM Energy     Delta E   Res. Norm    Conv?
                     1   0.4612588196  -9.55e-08    3.29e-05      N
Iter=21   L=3     Root    EOM Energy     Delta E   Res. Norm    Conv?
                     1   0.4612588526   3.29e-08    1.81e-05      N
Iter=22   L=4     Root    EOM Energy     Delta E   Res. Norm    Conv?
                     1   0.4612588714   1.88e-08    9.78e-06      N
Iter=23   L=5     Root    EOM Energy     Delta E   Res. Norm    Conv?
                     1   0.4612588818   1.04e-08    4.51e-06      N
Iter=24   L=6     Root    EOM Energy     Delta E   Res. Norm    Conv?
                     1   0.4612588832   1.43e-09    1.94e-06      N
Iter=25   L=7     Root    EOM Energy     Delta E   Res. Norm    Conv?
                     1   0.4612588826  -6.29e-10    9.92e-07      N
Iter=26   L=8     Root    EOM Energy     Delta E   Res. Norm    Conv?
                     1   0.4612588812  -1.39e-09    5.04e-07      N
Iter=27   L=9     Root    EOM Energy     Delta E   Res. Norm    Conv?
                     1   0.4612588812   3.56e-11    2.72e-07      N
Iter=28   L=10    Root    EOM Energy     Delta E   Res. Norm    Conv?
                     1   0.4612588814   1.10e-10    1.90e-07      N
Collapsing to 2 vector(s).
Change in CC3 energy from last iterated value   -0.0000000338
Iter=29   L=2     Root    EOM Energy     Delta E   Res. Norm    Conv?
                     1   0.4612588815   1.27e-10    1.90e-07      N
Iter=30   L=3     Root    EOM Energy     Delta E   Res. Norm    Conv?
                     1   0.4612588814  -3.77e-11    1.17e-07      N
Iter=31   L=4     Root    EOM Energy     Delta E   Res. Norm    Conv?
                     1   0.4612588815   9.62e-12    6.08e-08      N
Iter=32   L=5     Root    EOM Energy     Delta E   Res. Norm    Conv?
                     1   0.4612588815   1.49e-11    2.59e-08      N
Iter=33   L=6     Root    EOM Energy     Delta E   Res. Norm    Conv?
                     1   0.4612588815   8.88e-13    1.15e-08      N
Iter=34   L=7     Root    EOM Energy     Delta E   Res. Norm    Conv?
                     1   0.4612588815   5.19e-12    5.58e-09      Y
Collapsing to only 1 vector(s).
Change in CC3 energy from last iterated value    0.0000000001

Procedure converged for 1 root(s).
Energy written to CC_INFO:Etot  -75.4711232471
States per irrep written to CC_INFO.
<R|R> =   0.9999999999999997
EOM CC3 R0 for root 0 =   0.00408452922

Final Energetic Summary for Converged Roots of Irrep B1
                     Excitation Energy              Total Energy
                (eV)     (cm^-1)     (au)             (au)
EOM State 1     12.551   101234.6   0.4612588815   -75.471123247130

Largest components of excited wave function #1:
 RIA (libdpd indices) : (cscf notation)
         1 >   0      :       3a1 >    4a1 :    0.4937956993
         1 >   2      :       3a1 >    6a1 :   -0.1718773070
         1 >   5      :       3a1 >    9a1 :   -0.1359015645
         1 >   1      :       3a1 >    5a1 :    0.1284713101
         1 >   4      :       3a1 >    8a1 :    0.0513674190
 Ria (libdpd indices) : (cscf notation)
         1 >   0      :       3a1 >    4a1 :    0.5835958287
         1 >   2      :       3a1 >    6a1 :   -0.2323363164
         1 >   5      :       3a1 >    9a1 :    0.1708980311
         1 >   1      :       3a1 >    5a1 :   -0.1399387880
         1 >   4      :       3a1 >    8a1 :   -0.0588597621
 RIjAb (libdpd indices)     : (cscf notation)
        0   1 >   0   0     :    1b1    3a1 >    4a1    1b1 :   -0.3347337589
        0   1 >   2   0     :    1b1    3a1 >    6a1    1b1 :    0.1166508502
        0   1 >   0   1     :    1b1    3a1 >    4a1    2b1 :    0.0959984146
        0   1 >   5   0     :    1b1    3a1 >    9a1    1b1 :    0.0926709271
        0   1 >   1   0     :    1b1    3a1 >    5a1    1b1 :   -0.0849296282
 RIJAB (libdpd indices)     : (cscf notation)
        0   1 >   3   0     :    1b1    3a1 >    5b1    4a1 :   -0.0196876554
        0   1 >   0   0     :    1b1    3a1 >    2b1    4a1 :   -0.0193867866
        0   1 >   4   0     :    1b2    3a1 >    6b2    4a1 :   -0.0189467668
        0   1 >   1   0     :    1b2    3a1 >    3b2    4a1 :   -0.0182043843
        0   1 >   0   0     :    1b2    3a1 >    2b2    4a1 :   -0.0169244317
 Rijab (libdpd indices)     : (cscf notation)
        0   1 >   4   0     :    1b2    3a1 >    6b2    4a1 :   -0.0239326554
        0   1 >   1   0     :    1b2    3a1 >    3b2    4a1 :   -0.0232359087
        0   1 >   0   0     :    1b2    3a1 >    2b2    4a1 :   -0.0204213530
        0   1 >   8   0     :    1b2    3a1 >   10b2    4a1 :   -0.0134050342
        1   0 >   5   0     :    3a1    2a1 >    9a1    4a1 :   -0.0095270521

	Putting into environment energy for root of R irrep 1 and root 1.
	Putting into environment CURRENT ENERGY:              -75.4711232471

	Total # of sigma evaluations: 68

*** tstop() called on node20 at Sat Nov  5 10:28:35 2022
Module time:
	user time   =    1591.87 seconds =      26.53 minutes
	system time =     104.89 seconds =       1.75 minutes
	total time  =        426 seconds =       7.10 minutes
Total time:
	user time   =    2039.02 seconds =      33.98 minutes
	system time =     140.54 seconds =       2.34 minutes
	total time  =        550 seconds =       9.17 minutes

    Psi4 stopped on: Saturday, 05 November 2022 10:28AM
    Psi4 wall time for execution: 0:09:10.02

*** Psi4 exiting successfully. Buy a developer a beer!
