
    -----------------------------------------------------------------------
          Psi4: An Open-Source Ab Initio Electronic Structure Package
                               Psi4 1.2 release

                         Git: Rev {HEAD} 9d4a61c 


    R. M. Parrish, L. A. Burns, D. G. A. Smith, A. C. Simmonett,
    A. E. DePrince III, E. G. Hohenstein, U. Bozkaya, A. Yu. Sokolov,
    R. Di Remigio, R. M. Richard, J. F. Gonthier, A. M. James,
    H. R. McAlexander, A. Kumar, M. Saitow, X. Wang, B. P. Pritchard,
    P. Verma, H. F. Schaefer III, K. Patkowski, R. A. King, E. F. Valeev,
    F. A. Evangelista, J. M. Turney, T. D. Crawford, and C. D. Sherrill,
    J. Chem. Theory Comput. 13(7) pp 3185--3197 (2017).
    (doi: 10.1021/acs.jctc.7b00174)


                         Additional Contributions by
    P. Kraus, H. Kruse, M. H. Lechner, M. C. Schieber, and R. A. Shaw

    -----------------------------------------------------------------------


    Psi4 started on: Saturday, 05 November 2022 10:19AM

    Process ID: 8285
    Host:       node11
    PSIDATADIR: /home/qc/psi4conda/share/psi4
    Memory:     500.0 MiB
    Threads:    4
    
  ==> Input File <==

--------------------------------------------------------------------------
#h2o SPECIAL eom-cc3
memory 31950 mb

molecule h2o{
1 2
H        0.0000000000       -1.5616735973       -0.9717590545
O        0.0000000000       -0.0000000000        0.1272539190
H        0.0000000000        1.5616735973       -0.9717590545

units bohr
}
 
set globals {
 reference rohf
 basis aug-cc-pvtz-dk
 freeze_core true
 cachelevel=0
 relativistic x2c
 maxiter=500
 dertype none
 ints_tolerance 20
 roots_per_irrep = [0,0,1,0]
}

set scf d_convergence 12
set ccenergy r_convergence 12
set cceom r_convergence 8

energy('eom-cc3')--------------------------------------------------------------------------

  Memory set to  29.756 GiB by Python driver.

*** tstart() called on node11
*** at Sat Nov  5 10:19:23 2022

   => Loading Basis Set <=

    Name: AUG-CC-PVTZ-DK
    Role: ORBITAL
    Keyword: BASIS
    atoms 1, 3 entry H          line    45 file /home/qc/psi4conda/share/psi4/basis/aug-cc-pvtz-dk.gbs 
    atoms 2    entry O          line   324 file /home/qc/psi4conda/share/psi4/basis/aug-cc-pvtz-dk.gbs 


         ---------------------------------------------------------
                                   SCF
            by Justin Turney, Rob Parrish, Andy Simmonett
                             and Daniel Smith
                             ROHF Reference
                        4 Threads,  30469 MiB Core
         ---------------------------------------------------------

  ==> Geometry <==

    Molecular point group: c2v
    Full point group: C2v

    Geometry (in Bohr), charge = 1, multiplicity = 2:

       Center              X                  Y                   Z               Mass       
    ------------   -----------------  -----------------  -----------------  -----------------
         H            0.000000000000    -1.561673597300    -0.976017075846     1.007825032070
         O            0.000000000000     0.000000000000     0.122995897654    15.994914619560
         H           -0.000000000000     1.561673597300    -0.976017075846     1.007825032070

  Running in c2v symmetry.

  Rotational constants: A =     27.84318  B =     12.24612  C =      8.50529 [cm^-1]
  Rotational constants: A = 834717.58356  B = 367129.48191  C = 254982.05454 [MHz]
  Nuclear repulsion =    8.698793441232031

  Charge       = 1
  Multiplicity = 2
  Electrons    = 9
  Nalpha       = 5
  Nbeta        = 4

  ==> Algorithm <==

  SCF Algorithm Type is PK.
  DIIS enabled.
  MOM disabled.
  Fractional occupation disabled.
  Guess Type is GWH.
  Energy threshold   = 1.00e-08
  Density threshold  = 1.00e-12
  Integral threshold = 1.00e-20

  ==> Primary Basis <==

  Basis Set: AUG-CC-PVTZ-DK
    Blend: AUG-CC-PVTZ-DK
    Number of shells: 32
    Number of basis function: 92
    Number of Cartesian functions: 105
    Spherical Harmonics?: true
    Max angular momentum: 3

   => Loading Basis Set <=

    Name: (AUG-CC-PVTZ-DK AUX)
    Role: DECON
    Keyword: BASIS_RELATIVISTIC
    atoms 1, 3 entry H          line    45 file /home/qc/psi4conda/share/psi4/basis/aug-cc-pvtz-dk.gbs func decontract
    atoms 2    entry O          line   324 file /home/qc/psi4conda/share/psi4/basis/aug-cc-pvtz-dk.gbs func decontract

  ==> Pre-Iterations <==

   -------------------------------------------------------
    Irrep   Nso     Nmo     Nalpha   Nbeta   Ndocc  Nsocc
   -------------------------------------------------------
     A1        35      35       0       0       0       0
     A2        12      12       0       0       0       0
     B1        18      18       0       0       0       0
     B2        27      27       0       0       0       0
   -------------------------------------------------------
    Total      92      92       5       4       4       1
   -------------------------------------------------------

 OEINTS: Using relativistic (X2C) overlap, kinetic, and potential integrals.
         ------------------------------------------------------------
         Spin-Free X2C Integrals at the One-Electron Level (SFX2C-1e)
                 by Prakash Verma and Francesco A. Evangelista
         ------------------------------------------------------------

  ==> X2C Options <==

    Computational Basis: AUG-CC-PVTZ-DK
    X2C Basis: (AUG-CC-PVTZ-DK AUX)
    The X2C Hamiltonian will be computed in the X2C Basis

    Comparing only 35 out of 45 elements of H_Dirac

    Comparing only 18 out of 20 elements of H_Dirac

    Comparing only 27 out of 31 elements of H_Dirac

    The 1-norm of |H_X2C - H_Dirac| is: 6.548320564997

    WARNING: The X2C and Dirac Hamiltonians have substatially different eigenvalues!
             This is probably caused by the recontraction of the basis set.

  ==> Integral Setup <==

  Using in-core PK algorithm.
   Calculation information:
      Number of atoms:                   3
      Number of AO shells:              32
      Number of primitives:             52
      Number of atomic orbitals:       105
      Number of basis functions:        92

      Integral cutoff                 1.00e-20
      Number of threads:                 4

  Performing in-core PK
  Using 18305562 doubles for integral storage.
  We computed 171364 shell quartets total.
  Whereas there are 139656 unique shell quartets.
    22.70 percent of shell quartets recomputed by reordering.

  ==> DiskJK: Disk-Based J/K Matrices <==

    J tasked:                  Yes
    K tasked:                  Yes
    wK tasked:                  No
    Memory (MB):             22852
    Schwarz Cutoff:          1E-20

    OpenMP threads:              4

  Minimum eigenvalue in the overlap matrix is 4.1782956581E-04.
  Using Symmetric Orthogonalization.

  SCF Guess: Generalized Wolfsberg-Helmholtz.

  ==> Iterations <==

                        Total Energy        Delta E     RMS |[F,P]|

   @ROHF iter   1:   -69.37789847094552   -6.93779e+01   9.22306e-02 
   @ROHF iter   2:   -75.56688128313107   -6.18898e+00   1.07262e-02 DIIS
   @ROHF iter   3:   -75.68827063216848   -1.21389e-01   3.64982e-03 DIIS
   @ROHF iter   4:   -75.70138484721996   -1.31142e-02   1.18820e-03 DIIS
   @ROHF iter   5:   -75.70389773410446   -2.51289e-03   4.35929e-04 DIIS
   @ROHF iter   6:   -75.70411107297998   -2.13339e-04   6.61599e-05 DIIS
   @ROHF iter   7:   -75.70412120504976   -1.01321e-05   1.06866e-05 DIIS
   @ROHF iter   8:   -75.70412146805310   -2.63003e-07   1.84332e-06 DIIS
   @ROHF iter   9:   -75.70412147315034   -5.09723e-09   4.14595e-07 DIIS
   @ROHF iter  10:   -75.70412147338376   -2.33427e-10   8.93068e-08 DIIS
   @ROHF iter  11:   -75.70412147339243   -8.66862e-12   9.90169e-09 DIIS
   @ROHF iter  12:   -75.70412147339263   -1.98952e-13   1.31760e-09 DIIS
   @ROHF iter  13:   -75.70412147339249    1.42109e-13   2.38108e-10 DIIS
   @ROHF iter  14:   -75.70412147339258   -8.52651e-14   4.18342e-11 DIIS
   @ROHF iter  15:   -75.70412147339259   -1.42109e-14   7.40276e-12 DIIS
   @ROHF iter  16:   -75.70412147339263   -4.26326e-14   9.24708e-13 DIIS

  ==> Post-Iterations <==

    Orbital Energies [Eh]
    ---------------------

    Doubly Occupied:                                                      

       1A1   -21.116835     2A1    -1.794105     1B2    -1.168235  
       3A1    -1.043638  

    Singly Occupied:                                                      

       1B1    -0.683410  

    Virtual:                                                              

       4A1    -0.182442     2B2    -0.117624     5A1    -0.060836  
       2B1    -0.057277     6A1    -0.043288     3B2    -0.028995  
       4B2     0.010598     7A1     0.017749     1A2     0.036312  
       3B1     0.069969     8A1     0.072404     5B2     0.162361  
       9A1     0.176155     6B2     0.192586     7B2     0.324145  
      10A1     0.347053    11A1     0.409693     2A2     0.423510  
       4B1     0.423561    12A1     0.512784     5B1     0.554479  
      13A1     0.586472     8B2     0.594547     6B1     0.608971  
       3A2     0.622488     9B2     0.661703    14A1     0.667752  
      15A1     0.726812    10B2     0.741125     7B1     0.747201  
      11B2     0.826437    16A1     0.856248     4A2     0.868387  
      12B2     0.968846     5A2     1.162596     8B1     1.220065  
      17A1     1.250454    13B2     1.398775    18A1     1.447868  
      14B2     1.570771    19A1     1.671272     9B1     1.831486  
       6A2     1.896756    20A1     1.942902    21A1     1.978811  
      10B1     2.001226    15B2     2.051605    22A1     2.107655  
      23A1     2.302061    11B1     2.309989    16B2     2.331666  
       7A2     2.446245    17B2     2.490650    18B2     3.142624  
      24A1     3.291934     8A2     3.569616    12B1     3.575181  
      19B2     3.758944    25A1     3.767011    13B1     3.886015  
      14B1     3.965416     9A2     3.966339    20B2     4.034746  
      26A1     4.089715    27A1     4.183097    21B2     4.245741  
      22B2     4.579241    10A2     4.610296    28A1     4.701585  
      23B2     4.824439    15B1     4.885863    29A1     5.200824  
      30A1     5.590412    24B2     6.074359    16B1     6.201542  
      31A1     6.280812    17B1     6.587502    11A2     6.685709  
      18B1     6.705113    32A1     6.770295    25B2     6.824555  
      12A2     6.855001    33A1     6.946764    26B2     7.284037  
      34A1     7.392342    27B2     8.020123    35A1    13.839017  

    Final Occupation by Irrep:
             A1    A2    B1    B2 
    DOCC [     3,    0,    0,    1 ]
    SOCC [     0,    0,    1,    0 ]

  Energy converged.

  @ROHF Final Energy:   -75.70412147339263

   => Energetics <=

    Nuclear Repulsion Energy =              8.6987934412320307
    One-Electron Energy =                -117.4551073629259861
    Two-Electron Energy =                  33.0521924483013265
    Total Energy =                        -75.7041214733926324



Properties will be evaluated at   0.000000,   0.000000,   0.000000 [a0]

Properties computed using the SCF density matrix

  Nuclear Dipole Moment: [e a0]
     X:     0.0000      Y:     0.0000      Z:    -0.9681

  Electronic Dipole Moment: [e a0]
     X:     0.0000      Y:     0.0000      Z:    -0.0060

  Dipole Moment: [e a0]
     X:     0.0000      Y:     0.0000      Z:    -0.9740     Total:     0.9740

  Dipole Moment: [D]
     X:     0.0000      Y:     0.0000      Z:    -2.4758     Total:     2.4758


*** tstop() called on node11 at Sat Nov  5 10:19:25 2022
Module time:
	user time   =       5.18 seconds =       0.09 minutes
	system time =       0.16 seconds =       0.00 minutes
	total time  =          2 seconds =       0.03 minutes
Total time:
	user time   =       5.18 seconds =       0.09 minutes
	system time =       0.16 seconds =       0.00 minutes
	total time  =          2 seconds =       0.03 minutes
   => Loading Basis Set <=

    Name: (AUG-CC-PVTZ-DK AUX)
    Role: DECON
    Keyword: BASIS_RELATIVISTIC
    atoms 1, 3 entry H          line    45 file /home/qc/psi4conda/share/psi4/basis/aug-cc-pvtz-dk.gbs func decontract
    atoms 2    entry O          line   324 file /home/qc/psi4conda/share/psi4/basis/aug-cc-pvtz-dk.gbs func decontract

 MINTS: Wrapper to libmints.
   by Justin Turney

   Calculation information:
      Number of threads:                 4
      Number of atoms:                   3
      Number of AO shells:              32
      Number of SO shells:              23
      Number of primitives:             52
      Number of atomic orbitals:       105
      Number of basis functions:        92

      Number of irreps:                  4
      Integral cutoff                 1.00e-20
      Number of functions per irrep: [  35   12   18   27 ]

 OEINTS: Using relativistic (X2C) overlap, kinetic, and potential integrals.
         ------------------------------------------------------------
         Spin-Free X2C Integrals at the One-Electron Level (SFX2C-1e)
                 by Prakash Verma and Francesco A. Evangelista
         ------------------------------------------------------------

  ==> X2C Options <==

    Computational Basis: AUG-CC-PVTZ-DK
    X2C Basis: (AUG-CC-PVTZ-DK AUX)
    The X2C Hamiltonian will be computed in the X2C Basis

    Comparing only 35 out of 45 elements of H_Dirac

    Comparing only 18 out of 20 elements of H_Dirac

    Comparing only 27 out of 31 elements of H_Dirac

    The 1-norm of |H_X2C - H_Dirac| is: 6.548320564997

    WARNING: The X2C and Dirac Hamiltonians have substatially different eigenvalues!
             This is probably caused by the recontraction of the basis set.

 OEINTS: Overlap, kinetic, potential, dipole, and quadrupole integrals
         stored in file 35.

      Computing two-electron integrals...done
      Computed 2246435 non-zero two-electron integrals.
        Stored in file 33.


*** tstart() called on node11
*** at Sat Nov  5 10:19:25 2022


	Wfn Parameters:
	--------------------
	Wavefunction         = CC3
	Number of irreps     = 4
	Number of MOs        = 92
	Number of active MOs = 91
	AO-Basis             = NONE
	Semicanonical        = true
	Reference            = ROHF changed to UHF for semicanonical orbitals
	Print Level          = 1

	IRREP	# MOs	# FZDC	# DOCC	# SOCC	# VIRT	# FZVR
	-----	-----	------	------	------	------	------
	 A1	   35	    1	    2	    0	    32	    0
	 A2	   12	    0	    0	    0	    12	    0
	 B1	   18	    0	    0	    1	    17	    0
	 B2	   27	    0	    1	    0	    26	    0
	Transforming integrals...
	IWL integrals will be deleted.
	(OO|OO)...
	Presorting SO-basis two-electron integrals.
	Sorting File: SO Ints (nn|nn) nbuckets = 1
	Transforming the one-electron integrals and constructing Fock matrices
	Starting AA/AB first half-transformation.
	Sorting AA/AB half-transformed integrals.
	Starting BB first half-transformation.
	Sorting BB half-transformed integrals.
	First half integral transformation complete.
	Starting AA second half-transformation.
	Starting AB second half-transformation.
	Starting BB second half-transformation.
	Two-electron integral transformation complete.
	(OO|OV)...
	Starting AA second half-transformation.
	Starting AB second half-transformation.
	Starting BB second half-transformation.
	Two-electron integral transformation complete.
	(OO|VV)...
	Starting AA second half-transformation.
	Starting AB second half-transformation.
	Starting BB second half-transformation.
	Two-electron integral transformation complete.
	(OV|OO)...
	Starting AA/AB first half-transformation.
	Sorting AA/AB half-transformed integrals.
	Starting BB first half-transformation.
	Sorting BB half-transformed integrals.
	First half integral transformation complete.
	Starting AA second half-transformation.
	Starting AB second half-transformation.
	Starting BB second half-transformation.
	Two-electron integral transformation complete.
	(OV|OV)...
	Starting AA second half-transformation.
	Starting AB second half-transformation.
	Starting BB second half-transformation.
	Two-electron integral transformation complete.
	(OV|VV)...
	Starting AA second half-transformation.
	Starting AB second half-transformation.
	Starting BB second half-transformation.
	Two-electron integral transformation complete.
	(VV|OO)...
	Starting AA/AB first half-transformation.
	Sorting AA/AB half-transformed integrals.
	Starting BB first half-transformation.
	Sorting BB half-transformed integrals.
	First half integral transformation complete.
	Starting AA second half-transformation.
	Starting AB second half-transformation.
	Starting BB second half-transformation.
	Two-electron integral transformation complete.
	(VV|OV)...
	Starting AA second half-transformation.
	Starting AB second half-transformation.
	Starting BB second half-transformation.
	Two-electron integral transformation complete.
	(VV|VV)...
	Starting AA second half-transformation.
	Starting AB second half-transformation.
	Starting BB second half-transformation.
	Two-electron integral transformation complete.
	Frozen core energy     =    -61.24574006130418

	Size of irrep 0 of <AB|CD> integrals:      1.047 (MW) /      8.372 (MB)
	Size of irrep 1 of <AB|CD> integrals:      0.682 (MW) /      5.458 (MB)
	Size of irrep 2 of <AB|CD> integrals:      0.733 (MW) /      5.862 (MB)
	Size of irrep 3 of <AB|CD> integrals:      1.073 (MW) /      8.586 (MB)
	Total:                                     3.535 (MW) /     28.279 (MB)

	Size of irrep 0 of <ab|cd> integrals:      1.082 (MW) /      8.653 (MB)
	Size of irrep 1 of <ab|cd> integrals:      0.726 (MW) /      5.807 (MB)
	Size of irrep 2 of <ab|cd> integrals:      0.789 (MW) /      6.308 (MB)
	Size of irrep 3 of <ab|cd> integrals:      1.098 (MW) /      8.786 (MB)
	Total:                                     3.694 (MW) /     29.555 (MB)

	Size of irrep 0 of <Ab|Cd> integrals:      4.622 (MW) /     36.980 (MB)
	Size of irrep 1 of <Ab|Cd> integrals:      2.816 (MW) /     22.525 (MB)
	Size of irrep 2 of <Ab|Cd> integrals:      3.042 (MW) /     24.332 (MB)
	Size of irrep 3 of <Ab|Cd> integrals:      4.343 (MW) /     34.744 (MB)
	Total:                                    14.823 (MW) /    118.582 (MB)

	Size of irrep 0 of <IA|BC> integrals:      0.228 (MW) /      1.826 (MB)
	Size of irrep 1 of <IA|BC> integrals:      0.111 (MW) /      0.885 (MB)
	Size of irrep 2 of <IA|BC> integrals:      0.134 (MW) /      1.068 (MB)
	Size of irrep 3 of <IA|BC> integrals:      0.199 (MW) /      1.591 (MB)
	Total:                                     0.671 (MW) /      5.371 (MB)

	Size of irrep 0 of <ia|bc> integrals:      0.195 (MW) /      1.561 (MB)
	Size of irrep 1 of <ia|bc> integrals:      0.072 (MW) /      0.573 (MB)
	Size of irrep 2 of <ia|bc> integrals:      0.085 (MW) /      0.682 (MB)
	Size of irrep 3 of <ia|bc> integrals:      0.176 (MW) /      1.409 (MB)
	Total:                                     0.528 (MW) /      4.224 (MB)

	Size of irrep 0 of <Ia|Bc> integrals:      0.232 (MW) /      1.858 (MB)
	Size of irrep 1 of <Ia|Bc> integrals:      0.114 (MW) /      0.913 (MB)
	Size of irrep 2 of <Ia|Bc> integrals:      0.140 (MW) /      1.116 (MB)
	Size of irrep 3 of <Ia|Bc> integrals:      0.200 (MW) /      1.601 (MB)
	Total:                                     0.686 (MW) /      5.487 (MB)

	Size of irrep 0 of <iA|bC> integrals:      0.194 (MW) /      1.548 (MB)
	Size of irrep 1 of <iA|bC> integrals:      0.069 (MW) /      0.550 (MB)
	Size of irrep 2 of <iA|bC> integrals:      0.080 (MW) /      0.642 (MB)
	Size of irrep 3 of <iA|bC> integrals:      0.175 (MW) /      1.400 (MB)
	Total:                                     0.518 (MW) /      4.141 (MB)

	Size of irrep 0 of tIjAb amplitudes:       0.011 (MW) /      0.086 (MB)
	Size of irrep 1 of tIjAb amplitudes:       0.002 (MW) /      0.013 (MB)
	Size of irrep 2 of tIjAb amplitudes:       0.003 (MW) /      0.028 (MB)
	Size of irrep 3 of tIjAb amplitudes:       0.008 (MW) /      0.067 (MB)
	Total:                                     0.024 (MW) /      0.194 (MB)

	Nuclear Rep. energy          =      8.69879344123203
	SCF energy                   =    -75.70412147339263
	One-electron energy          =    -37.19733223638953
	Two-electron (AA) energy     =      3.69339377644871
	Two-electron (BB) energy     =      1.74868805852217
	Two-electron (AB) energy     =      8.59807554809846
	Two-electron energy          =     14.04015738306935
	Reference energy             =    -75.70412147339233

*** tstop() called on node11 at Sat Nov  5 10:19:28 2022
Module time:
	user time   =       2.10 seconds =       0.04 minutes
	system time =       0.95 seconds =       0.02 minutes
	total time  =          3 seconds =       0.05 minutes
Total time:
	user time   =       9.05 seconds =       0.15 minutes
	system time =       1.16 seconds =       0.02 minutes
	total time  =          5 seconds =       0.08 minutes

*** tstart() called on node11
*** at Sat Nov  5 10:19:28 2022

            **************************
            *                        *
            *        CCENERGY        *
            *                        *
            **************************

    Nuclear Rep. energy (wfn)     =    8.698793441232031
    SCF energy          (wfn)     =  -75.704121473392632
    Reference energy    (file100) =  -75.704121473392334

    Input parameters:
    -----------------
    Wave function   =     CC3
    Reference wfn   =     ROHF changed to UHF for Semicanonical Orbitals
    Brueckner       =     No
    Memory (Mbytes) =     31950.0
    Maxiter         =    500
    R_Convergence   =     1.0e-12
    E_Convergence   =     1.0e-06
    Restart         =     Yes
    DIIS            =     Yes
    AO Basis        =     NONE
    ABCD            =     NEW
    Cache Level     =     0
    Cache Type      =     LRU
    Print Level     =     1
    Num. of threads =     4
    # Amps to Print =     10
    Print MP2 Amps? =     No
    Analyze T2 Amps =     No
    Print Pair Ener =     No
    Local CC        =     No
    T3 Ws incore    =     No
    SCS-MP2         =     False
    SCSN-MP2        =     False
    SCS-CCSD        =     False

MP2 correlation energy -0.2077113642295816
                Solving CC Amplitude Equations
                ------------------------------
  Iter             Energy              RMS        T1Diag      D1Diag    New D1Diag    D2Diag
  ----     ---------------------    ---------   ----------  ----------  ----------   --------
     0        -0.207770128328947    0.000e+00    0.013536    0.000000    0.000000    0.000000
     1        -0.222724700835142    3.372e-02    0.016750    0.000000    0.000000    0.000000
     2        -0.227807034021226    1.237e-02    0.018536    0.000000    0.000000    0.000000
     3        -0.228117628959632    4.229e-03    0.019137    0.000000    0.000000    0.000000
     4        -0.228129520464397    1.849e-03    0.019216    0.000000    0.000000    0.000000
     5        -0.228167977833739    7.737e-04    0.019189    0.000000    0.000000    0.000000
     6        -0.228171688450465    2.597e-04    0.019153    0.000000    0.000000    0.000000
     7        -0.228174156308021    1.003e-04    0.019140    0.000000    0.000000    0.000000
     8        -0.228174003389326    3.485e-05    0.019138    0.000000    0.000000    0.000000
     9        -0.228173961866138    1.166e-05    0.019138    0.000000    0.000000    0.000000
    10        -0.228174093091984    4.343e-06    0.019139    0.000000    0.000000    0.000000
    11        -0.228174024090370    1.489e-06    0.019139    0.000000    0.000000    0.000000
    12        -0.228174005246962    4.521e-07    0.019139    0.000000    0.000000    0.000000
    13        -0.228173993571981    1.253e-07    0.019139    0.000000    0.000000    0.000000
    14        -0.228173993194012    3.736e-08    0.019139    0.000000    0.000000    0.000000
    15        -0.228173993151043    1.418e-08    0.019139    0.000000    0.000000    0.000000
    16        -0.228173993069460    6.448e-09    0.019139    0.000000    0.000000    0.000000
    17        -0.228173992954177    2.951e-09    0.019139    0.000000    0.000000    0.000000
    18        -0.228173992878786    1.239e-09    0.019139    0.000000    0.000000    0.000000
    19        -0.228173992866916    5.010e-10    0.019139    0.000000    0.000000    0.000000
    20        -0.228173992868089    1.759e-10    0.019139    0.000000    0.000000    0.000000
    21        -0.228173992867230    6.099e-11    0.019139    0.000000    0.000000    0.000000
    22        -0.228173992867361    2.144e-11    0.019139    0.000000    0.000000    0.000000
    23        -0.228173992867339    6.476e-12    0.019139    0.000000    0.000000    0.000000
    24        -0.228173992867385    2.144e-12    0.019139    0.000000    0.000000    0.000000
    25        -0.228173992867391    6.150e-13    0.019139    0.000000    0.000000    0.000000

    Iterations converged.


    Largest TIA Amplitudes:
              0  14        -0.0098763880
              0   0        -0.0091380776
              0   6         0.0083115527
              0  15        -0.0079958628
              0   5         0.0078500383
              0   7         0.0077061117
              0  17         0.0076627264
              0   2         0.0072657444
              2  44         0.0063211513
              1  17        -0.0062308008

    Largest Tia Amplitudes:
              1   1        -0.0109832961
              2  63         0.0108216688
              0   0         0.0101831137
              0   2        -0.0098135047
              2  62         0.0097345314
              2  66         0.0088197240
              1   0         0.0087627063
              0   7        -0.0081185132
              0  17        -0.0081068475
              1   4        -0.0081061562

    Largest TIJAB Amplitudes:
      2   1  47   9        -0.0081899773
      3   2  33   6         0.0079228947
      3   2  65  47        -0.0078639488
      2   1  51  17        -0.0077811727
      2   1  48   9        -0.0070789756
      3   1  65   9        -0.0069967961
      3   2  62  47         0.0069749202
      2   1  46   7         0.0069719772
      3   2  61  47         0.0069611881
      2   1  44   9         0.0066554495

    Largest Tijab Amplitudes:
      1   0  47  44         0.0081286547
      2   0  44  33        -0.0078013064
      1   0  52  44        -0.0075075723
      2   1  63   6         0.0071978632
      2   1  66   9         0.0070787352
      2   1  66   6         0.0068439277
      2   1  62   9         0.0064874281
      2   1  67   6         0.0063210961
      2   1  66   1         0.0061287814
      2   0  44  36        -0.0059976878

    Largest TIjAb Amplitudes:
      3   2  65  66         0.0193151581
      1   1   9   9        -0.0178567479
      3   2  62  66        -0.0176487811
      3   2  65  63         0.0175517322
      2   0   0  44         0.0170083443
      3   2  62  63        -0.0165009670
      3   2  61  66        -0.0159563799
      2   0   6  44        -0.0158163276
      2   0  14  44         0.0157075706
      1   0  51  44         0.0151440513

    SCF energy       (wfn)                    =  -75.704121473392632
    Reference energy (file100)                =  -75.704121473392334

    Opposite-spin MP2 correlation energy      =   -0.158570606989969
    Same-spin MP2 correlation energy          =   -0.045530709921067
    MP2 correlation energy                    =   -0.207711364229582
      * MP2 total energy                      =  -75.911832837621915
    CC3 correlation energy                    =   -0.228173992867391
      * CC3 total energy                      =  -75.932295466259731


*** tstop() called on node11 at Sat Nov  5 10:21:07 2022
Module time:
	user time   =     365.11 seconds =       6.09 minutes
	system time =      27.26 seconds =       0.45 minutes
	total time  =         99 seconds =       1.65 minutes
Total time:
	user time   =     374.16 seconds =       6.24 minutes
	system time =      28.42 seconds =       0.47 minutes
	total time  =        104 seconds =       1.73 minutes

*** tstart() called on node11
*** at Sat Nov  5 10:21:07 2022


			**************************
			*                        *
			*         CCHBAR         *
			*                        *
			**************************

Dots of (HeT1)c in names "CC3 Wxxx" in CC3_HET1 
Wamef terms
	<WAMEF|WAMEF> =   13.2812331816
	<Wamef|Wamef> =   10.8447149940
	<WAmEf|WAmEf> =    9.3009263999
	<WaMeF|WaMeF> =   12.6353384433
Wmnie terms
	<WMNIE (M>N,IE)|WMNIE> =    0.7440929422
	<Wmnie (m>n,ie)|Wmnie> =    0.3275211290
	<WMnIe (Mn,Ie)|WMnIe> =    0.7246417975
	<WmNiE (mN,iE)|WmNiE> =    0.6120096099
	<WMNIE(M>N,EI)|WMNIE(M>N,EI)> =    0.7440929422
	<Wmnie(m>n,ei)|Wmnie(m>n,ei)> =    0.3275211290
	<WMnIe(Mn,eI)|WMnIe(Mn,eI)> =    0.7246417975
	<WmNiE(mN,Ei)|WmNiE(mN,Ei)> =    0.6120096099
Doing Wmnij terms.
	<WMNIJ (M>N,I>J)|WMNIJ> =    9.1920688634
	<Wmnij (m>n,i>j)|Wmnij> =    4.0253441238
	<WMnIj (Mn,Ij)|WMnIj> =    6.3598061123
Doing Wmbij terms.
	<WMBIJ (MB,I>J)|WMBIJ> =    0.7495594122
	<WMBIJ (I>J,MB)|WMBIJ> =    0.7495594122
	<Wmbij (mb,i>j)|Wmbij> =    0.3334402225
	<Wmbij (i>j,mb)|Wmbij> =    0.3334402225
	<WMbIj (Mb,Ij)|WMbIj> =    0.7281924826
	<WMbIj (Ij,Mb)|WMbIj> =    0.7281924826
	<WmBiJ (mB,iJ)|WmBiJ> =    0.6154328730
	<WmBiJ (iJ,mB)|WmBiJ> =    0.6154328730
Doing Wmbej terms.
	<WMBEJ (all ME,JB)|WMBEJ> =   81.5295811143
	<Wmbej|Wmbej> =   61.6836872260
	<WMbEj|WMbEj> =    1.0268329719
	<WmBeJ|WmBeJ> =    1.0365070016
	<WMbeJ|WMbeJ> =   94.5114861385
	<WmBEj|WmBEj> =   67.6426452579
Doing Wabei terms.
	<WABEI (IE,B>A) |WABEI> =   13.3362292982
	<Wabei (ie,b>a)|Wabei> =   10.9467006464
	<WAbEi (iE,bA)|WAbEi> =    9.3786917090
	<WAbEi (iE,Ba)|WAbEi> =   12.6714899536

*** tstop() called on node11 at Sat Nov  5 10:21:08 2022
Module time:
	user time   =       2.86 seconds =       0.05 minutes
	system time =       0.49 seconds =       0.01 minutes
	total time  =          1 seconds =       0.02 minutes
Total time:
	user time   =     377.02 seconds =       6.28 minutes
	system time =      28.91 seconds =       0.48 minutes
	total time  =        105 seconds =       1.75 minutes

*** tstart() called on node11
*** at Sat Nov  5 10:21:08 2022


	**********************************************************
	*  CCEOM: An Equation of Motion Coupled Cluster Program  *
	**********************************************************

	Nuclear Rep. energy (wfn)     =    8.698793441232031
	SCF energy          (wfn)     =  -75.704121473392632
	Reference energy    (file100) =  -75.704121473392334
	CC3 energy          (file100) =   -0.228173992867391

	Input parameters:
	-----------------
	Reference wfn   = ROHF changed to UHF for Semicanonical Orbitals
	Reference EOM wfn=     UHF
	Memory (Mbytes) =  31950.0
	ABCD            =     NEW
	Cache Level     =    0
	Cache Type      =     LRU
	T3 Ws incore  =      No
	Num. of threads =     4
	Local CC        =     No


	CCEOM parameters:
	-----------------
	States sought per irrep     = A1 0, A2 0, B1 1, B2 0,
	Max. number of iterations   =   500
	Vectors stored per root     =    12
	Print HbarSS iterations?    =     0
	Excitation range for HBarSS =     2
	Eigenvalue tolerance        = 1.0e-06
	Eigenvalue toleranceSS      = 1.0e-06
	Residual vector tolerance   = 1.0e-08
	Residual vector toleranceSS = 1.0e-06
	Complex tolerance           = 1.0e-12
	Root for properties         =     1
	Sym of state for properties =     A1
	Guess vectors taken from    = SINGLES
	Restart EOM CC3             = NO
	Collapse with last vector   = YES


Symmetry of ground state: B1
Symmetry of excited state: B1
Symmetry of right eigenvector: A1
Obtaining initial guess from singles-singles block of Hbar...Done.

Iter=1    L=1     Root    EOM Energy     Delta E   Res. Norm    Conv?
                     1   0.5701787192   5.70e-01    5.13e-01      N
Iter=2    L=2     Root    EOM Energy     Delta E   Res. Norm    Conv?
                     1   0.4792438789  -9.09e-02    9.77e-02      N
Iter=3    L=3     Root    EOM Energy     Delta E   Res. Norm    Conv?
                     1   0.4729551770  -6.29e-03    6.44e-02      N
Iter=4    L=4     Root    EOM Energy     Delta E   Res. Norm    Conv?
                     1   0.4696865404  -3.27e-03    4.66e-02      N
Iter=5    L=5     Root    EOM Energy     Delta E   Res. Norm    Conv?
                     1   0.4684568324  -1.23e-03    2.71e-02      N
Iter=6    L=6     Root    EOM Energy     Delta E   Res. Norm    Conv?
                     1   0.4680189369  -4.38e-04    1.36e-02      N
Iter=7    L=7     Root    EOM Energy     Delta E   Res. Norm    Conv?
                     1   0.4678790057  -1.40e-04    8.85e-03      N
Iter=8    L=8     Root    EOM Energy     Delta E   Res. Norm    Conv?
                     1   0.4678016019  -7.74e-05    6.26e-03      N
Iter=9    L=9     Root    EOM Energy     Delta E   Res. Norm    Conv?
                     1   0.4677659148  -3.57e-05    3.78e-03      N
Iter=10   L=10    Root    EOM Energy     Delta E   Res. Norm    Conv?
                     1   0.4677551948  -1.07e-05    2.86e-03      N
Iter=11   L=11    Root    EOM Energy     Delta E   Res. Norm    Conv?
                     1   0.4677457693  -9.43e-06    2.33e-03      N
Iter=12   L=12    Root    EOM Energy     Delta E   Res. Norm    Conv?
                     1   0.4677424202  -3.35e-06    1.37e-03      N
Iter=13   L=2     Root    EOM Energy     Delta E   Res. Norm    Conv?
                     1   0.4677424202   5.55e-16    1.37e-03      N
Iter=14   L=3     Root    EOM Energy     Delta E   Res. Norm    Conv?
                     1   0.4677415472  -8.73e-07    6.69e-04      N
Iter=15   L=4     Root    EOM Energy     Delta E   Res. Norm    Conv?
                     1   0.4677417766   2.29e-07    3.98e-04      N
Iter=16   L=5     Root    EOM Energy     Delta E   Res. Norm    Conv?
                     1   0.4677410398  -7.37e-07    2.27e-04      N
Iter=17   L=6     Root    EOM Energy     Delta E   Res. Norm    Conv?
                     1   0.4677406350  -4.05e-07    9.70e-05      N
Iter=18   L=7     Root    EOM Energy     Delta E   Res. Norm    Conv?
                     1   0.4677407296   9.47e-08    3.75e-05      N
Iter=19   L=8     Root    EOM Energy     Delta E   Res. Norm    Conv?
                     1   0.4677406819  -4.77e-08    1.47e-05      N
Iter=20   L=9     Root    EOM Energy     Delta E   Res. Norm    Conv?
                     1   0.4677406770  -4.89e-09    6.49e-06      N
Iter=21   L=10    Root    EOM Energy     Delta E   Res. Norm    Conv?
                     1   0.4677406739  -3.06e-09    2.66e-06      N
Iter=22   L=11    Root    EOM Energy     Delta E   Res. Norm    Conv?
                     1   0.4677406765   2.54e-09    1.01e-06      N
Iter=23   L=12    Root    EOM Energy     Delta E   Res. Norm    Conv?
                     1   0.4677406804   3.95e-09    4.59e-07      N
Iter=24   L=2     Root    EOM Energy     Delta E   Res. Norm    Conv?
                     1   0.4677406804  -5.26e-13    4.59e-07      N
Iter=25   L=3     Root    EOM Energy     Delta E   Res. Norm    Conv?
                     1   0.4677406812   7.28e-10    3.26e-07      N
Iter=26   L=4     Root    EOM Energy     Delta E   Res. Norm    Conv?
                     1   0.4677406816   4.68e-10    2.31e-07      N
Iter=27   L=5     Root    EOM Energy     Delta E   Res. Norm    Conv?
                     1   0.4677406823   7.01e-10    1.41e-07      N
Iter=28   L=6     Root    EOM Energy     Delta E   Res. Norm    Conv?
                     1   0.4677406825   1.89e-10    8.61e-08      N
Iter=29   L=7     Root    EOM Energy     Delta E   Res. Norm    Conv?
                     1   0.4677406827   1.98e-10    5.66e-08      N
Iter=30   L=8     Root    EOM Energy     Delta E   Res. Norm    Conv?
                     1   0.4677406827   1.01e-11    3.89e-08      N
Iter=31   L=9     Root    EOM Energy     Delta E   Res. Norm    Conv?
                     1   0.4677406827  -1.15e-11    2.43e-08      N
Iter=32   L=10    Root    EOM Energy     Delta E   Res. Norm    Conv?
                     1   0.4677406827   4.41e-12    1.46e-08      N
Iter=33   L=11    Root    EOM Energy     Delta E   Res. Norm    Conv?
                     1   0.4677406827  -2.91e-11    9.48e-09      Y
Completed EOM_CCSD
Collapsing to only 1 vector(s).
Copying root 1 to CC3_MISC file.
Setting initial CC3 eigenvalue to    0.4677406827
Iter=1    L=1     Root    EOM Energy     Delta E   Res. Norm    Conv?
                     1   0.4623737839  -5.37e-03    4.35e-02      N
Iter=2    L=2     Root    EOM Energy     Delta E   Res. Norm    Conv?
                     1   0.4608187391  -1.56e-03    2.71e-02      N
Iter=3    L=3     Root    EOM Energy     Delta E   Res. Norm    Conv?
                     1   0.4593649102  -1.45e-03    4.26e-02      N
Iter=4    L=4     Root    EOM Energy     Delta E   Res. Norm    Conv?
                     1   0.4575496355  -1.82e-03    2.51e-02      N
Iter=5    L=5     Root    EOM Energy     Delta E   Res. Norm    Conv?
                     1   0.4571560566  -3.94e-04    1.29e-02      N
Iter=6    L=6     Root    EOM Energy     Delta E   Res. Norm    Conv?
                     1   0.4570304131  -1.26e-04    1.21e-02      N
Iter=7    L=7     Root    EOM Energy     Delta E   Res. Norm    Conv?
                     1   0.4568889911  -1.41e-04    9.17e-03      N
Iter=8    L=8     Root    EOM Energy     Delta E   Res. Norm    Conv?
                     1   0.4568085818  -8.04e-05    5.23e-03      N
Iter=9    L=9     Root    EOM Energy     Delta E   Res. Norm    Conv?
                     1   0.4568032354  -5.35e-06    2.35e-03      N
Iter=10   L=10    Root    EOM Energy     Delta E   Res. Norm    Conv?
                     1   0.4568023169  -9.19e-07    1.17e-03      N
Collapsing to 2 vector(s).
Change in CC3 energy from last iterated value   -0.0109383658
Iter=11   L=2     Root    EOM Energy     Delta E   Res. Norm    Conv?
                     1   0.4568301507   2.78e-05    1.17e-03      N
Iter=12   L=3     Root    EOM Energy     Delta E   Res. Norm    Conv?
                     1   0.4568281144  -2.04e-06    7.66e-04      N
Iter=13   L=4     Root    EOM Energy     Delta E   Res. Norm    Conv?
                     1   0.4568279029  -2.11e-07    4.85e-04      N
Iter=14   L=5     Root    EOM Energy     Delta E   Res. Norm    Conv?
                     1   0.4568283059   4.03e-07    2.25e-04      N
Iter=15   L=6     Root    EOM Energy     Delta E   Res. Norm    Conv?
                     1   0.4568276614  -6.44e-07    1.19e-04      N
Iter=16   L=7     Root    EOM Energy     Delta E   Res. Norm    Conv?
                     1   0.4568276350  -2.64e-08    7.41e-05      N
Iter=17   L=8     Root    EOM Energy     Delta E   Res. Norm    Conv?
                     1   0.4568279386   3.04e-07    5.37e-05      N
Iter=18   L=9     Root    EOM Energy     Delta E   Res. Norm    Conv?
                     1   0.4568280062   6.77e-08    4.53e-05      N
Iter=19   L=10    Root    EOM Energy     Delta E   Res. Norm    Conv?
                     1   0.4568279856  -2.07e-08    3.30e-05      N
Collapsing to 2 vector(s).
Change in CC3 energy from last iterated value    0.0000256687
Iter=20   L=2     Root    EOM Energy     Delta E   Res. Norm    Conv?
                     1   0.4568278887  -9.69e-08    3.26e-05      N
Iter=21   L=3     Root    EOM Energy     Delta E   Res. Norm    Conv?
                     1   0.4568279207   3.20e-08    1.79e-05      N
Iter=22   L=4     Root    EOM Energy     Delta E   Res. Norm    Conv?
                     1   0.4568279386   1.79e-08    9.60e-06      N
Iter=23   L=5     Root    EOM Energy     Delta E   Res. Norm    Conv?
                     1   0.4568279495   1.09e-08    4.39e-06      N
Iter=24   L=6     Root    EOM Energy     Delta E   Res. Norm    Conv?
                     1   0.4568279513   1.83e-09    1.85e-06      N
Iter=25   L=7     Root    EOM Energy     Delta E   Res. Norm    Conv?
                     1   0.4568279511  -2.61e-10    9.34e-07      N
Iter=26   L=8     Root    EOM Energy     Delta E   Res. Norm    Conv?
                     1   0.4568279497  -1.33e-09    4.60e-07      N
Iter=27   L=9     Root    EOM Energy     Delta E   Res. Norm    Conv?
                     1   0.4568279497  -5.53e-12    2.36e-07      N
Iter=28   L=10    Root    EOM Energy     Delta E   Res. Norm    Conv?
                     1   0.4568279498   4.26e-11    1.60e-07      N
Collapsing to 2 vector(s).
Change in CC3 energy from last iterated value   -0.0000000358
Iter=29   L=2     Root    EOM Energy     Delta E   Res. Norm    Conv?
                     1   0.4568279499   1.35e-10    1.59e-07      N
Iter=30   L=3     Root    EOM Energy     Delta E   Res. Norm    Conv?
                     1   0.4568279498  -4.44e-11    1.02e-07      N
Iter=31   L=4     Root    EOM Energy     Delta E   Res. Norm    Conv?
                     1   0.4568279499   4.90e-12    5.68e-08      N
Iter=32   L=5     Root    EOM Energy     Delta E   Res. Norm    Conv?
                     1   0.4568279499   2.00e-11    2.51e-08      N
Iter=33   L=6     Root    EOM Energy     Delta E   Res. Norm    Conv?
                     1   0.4568279499   3.10e-12    1.13e-08      N
Iter=34   L=7     Root    EOM Energy     Delta E   Res. Norm    Conv?
                     1   0.4568279499   7.29e-12    5.41e-09      Y
Collapsing to only 1 vector(s).
Change in CC3 energy from last iterated value    0.0000000001

Procedure converged for 1 root(s).
Energy written to CC_INFO:Etot  -75.4754675164
States per irrep written to CC_INFO.
<R|R> =   1.0000000000000002
EOM CC3 R0 for root 0 =  -0.00427103611

Final Energetic Summary for Converged Roots of Irrep B1
                     Excitation Energy              Total Energy
                (eV)     (cm^-1)     (au)             (au)
EOM State 1     12.431   100262.1   0.4568279499   -75.475467516375

Largest components of excited wave function #1:
 RIA (libdpd indices) : (cscf notation)
         1 >   0      :       3a1 >    4a1 :   -0.4950935067
         1 >   2      :       3a1 >    6a1 :    0.1676692277
         1 >   5      :       3a1 >    9a1 :    0.1356169978
         1 >   1      :       3a1 >    5a1 :   -0.1328625420
         1 >   4      :       3a1 >    8a1 :   -0.0516101158
 Ria (libdpd indices) : (cscf notation)
         1 >   0      :       3a1 >    4a1 :    0.5828013238
         1 >   2      :       3a1 >    6a1 :   -0.2280844098
         1 >   5      :       3a1 >    9a1 :    0.1701279982
         1 >   1      :       3a1 >    5a1 :   -0.1440943493
         1 >   4      :       3a1 >    8a1 :   -0.0590786013
 RIjAb (libdpd indices)     : (cscf notation)
        0   1 >   0   0     :    1b1    3a1 >    4a1    1b1 :   -0.3347796310
        0   1 >   2   0     :    1b1    3a1 >    6a1    1b1 :    0.1135136139
        0   1 >   0   1     :    1b1    3a1 >    4a1    2b1 :   -0.0966148340
        0   1 >   5   0     :    1b1    3a1 >    9a1    1b1 :    0.0922435361
        0   1 >   1   0     :    1b1    3a1 >    5a1    1b1 :   -0.0877275756
 RIJAB (libdpd indices)     : (cscf notation)
        0   1 >   3   0     :    1b1    3a1 >    5b1    4a1 :   -0.0194335074
        0   1 >   0   0     :    1b1    3a1 >    2b1    4a1 :    0.0193952111
        0   1 >   4   0     :    1b2    3a1 >    6b2    4a1 :   -0.0188707623
        0   1 >   1   0     :    1b2    3a1 >    3b2    4a1 :    0.0182462081
        0   1 >   0   0     :    1b2    3a1 >    2b2    4a1 :    0.0172971295
 Rijab (libdpd indices)     : (cscf notation)
        0   1 >   4   0     :    1b2    3a1 >    6b2    4a1 :   -0.0237720787
        0   1 >   1   0     :    1b2    3a1 >    3b2    4a1 :   -0.0232441808
        0   1 >   0   0     :    1b2    3a1 >    2b2    4a1 :   -0.0207782243
        0   1 >   8   0     :    1b2    3a1 >   10b2    4a1 :   -0.0131804708
        1   0 >   5   0     :    3a1    2a1 >    6b1    1b1 :    0.0094777041

	Putting into environment energy for root of R irrep 1 and root 1.
	Putting into environment CURRENT ENERGY:              -75.4754675164

	Total # of sigma evaluations: 68

*** tstop() called on node11 at Sat Nov  5 10:28:26 2022
Module time:
	user time   =    1653.42 seconds =      27.56 minutes
	system time =      98.32 seconds =       1.64 minutes
	total time  =        438 seconds =       7.30 minutes
Total time:
	user time   =    2030.44 seconds =      33.84 minutes
	system time =     127.23 seconds =       2.12 minutes
	total time  =        543 seconds =       9.05 minutes

    Psi4 stopped on: Saturday, 05 November 2022 10:28AM
    Psi4 wall time for execution: 0:09:03.44

*** Psi4 exiting successfully. Buy a developer a beer!
