
    -----------------------------------------------------------------------
          Psi4: An Open-Source Ab Initio Electronic Structure Package
                               Psi4 1.2 release

                         Git: Rev {HEAD} 9d4a61c 


    R. M. Parrish, L. A. Burns, D. G. A. Smith, A. C. Simmonett,
    A. E. DePrince III, E. G. Hohenstein, U. Bozkaya, A. Yu. Sokolov,
    R. Di Remigio, R. M. Richard, J. F. Gonthier, A. M. James,
    H. R. McAlexander, A. Kumar, M. Saitow, X. Wang, B. P. Pritchard,
    P. Verma, H. F. Schaefer III, K. Patkowski, R. A. King, E. F. Valeev,
    F. A. Evangelista, J. M. Turney, T. D. Crawford, and C. D. Sherrill,
    J. Chem. Theory Comput. 13(7) pp 3185--3197 (2017).
    (doi: 10.1021/acs.jctc.7b00174)


                         Additional Contributions by
    P. Kraus, H. Kruse, M. H. Lechner, M. C. Schieber, and R. A. Shaw

    -----------------------------------------------------------------------


    Psi4 started on: Saturday, 05 November 2022 10:19AM

    Process ID: 39856
    Host:       node10
    PSIDATADIR: /home/qc/psi4conda/share/psi4
    Memory:     500.0 MiB
    Threads:    4
    
  ==> Input File <==

--------------------------------------------------------------------------
#h2o SPECIAL eom-cc3
memory 31950 mb

molecule h2o{
1 2
H        0.0000000000       -1.5561590344       -0.9743572538
O        0.0000000000       -0.0000000000        0.1324503175
H        0.0000000000        1.5561590344       -0.9743572538

units bohr
}
 
set globals {
 reference rohf
 basis aug-cc-pvtz-dk
 freeze_core true
 cachelevel=0
 relativistic x2c
 maxiter=500
 dertype none
 ints_tolerance 20
 roots_per_irrep = [0,0,1,0]
}

set scf d_convergence 12
set ccenergy r_convergence 12
set cceom r_convergence 8

energy('eom-cc3')--------------------------------------------------------------------------

  Memory set to  29.756 GiB by Python driver.

*** tstart() called on node10
*** at Sat Nov  5 10:19:27 2022

   => Loading Basis Set <=

    Name: AUG-CC-PVTZ-DK
    Role: ORBITAL
    Keyword: BASIS
    atoms 1, 3 entry H          line    45 file /home/qc/psi4conda/share/psi4/basis/aug-cc-pvtz-dk.gbs 
    atoms 2    entry O          line   324 file /home/qc/psi4conda/share/psi4/basis/aug-cc-pvtz-dk.gbs 


         ---------------------------------------------------------
                                   SCF
            by Justin Turney, Rob Parrish, Andy Simmonett
                             and Daniel Smith
                             ROHF Reference
                        4 Threads,  30469 MiB Core
         ---------------------------------------------------------

  ==> Geometry <==

    Molecular point group: c2v
    Full point group: C2v

    Geometry (in Bohr), charge = 1, multiplicity = 2:

       Center              X                  Y                   Z               Mass       
    ------------   -----------------  -----------------  -----------------  -----------------
         H            0.000000000000    -1.556159034400    -0.982939342221     1.007825032070
         O           -0.000000000000     0.000000000000     0.123868229079    15.994914619560
         H           -0.000000000000     1.556159034400    -0.982939342221     1.007825032070

  Running in c2v symmetry.

  Rotational constants: A =     27.45240  B =     12.33307  C =      8.50995 [cm^-1]
  Rotational constants: A = 823002.12729  B = 369736.08676  C = 255121.85520 [MHz]
  Nuclear repulsion =    8.699928025971445

  Charge       = 1
  Multiplicity = 2
  Electrons    = 9
  Nalpha       = 5
  Nbeta        = 4

  ==> Algorithm <==

  SCF Algorithm Type is PK.
  DIIS enabled.
  MOM disabled.
  Fractional occupation disabled.
  Guess Type is GWH.
  Energy threshold   = 1.00e-08
  Density threshold  = 1.00e-12
  Integral threshold = 1.00e-20

  ==> Primary Basis <==

  Basis Set: AUG-CC-PVTZ-DK
    Blend: AUG-CC-PVTZ-DK
    Number of shells: 32
    Number of basis function: 92
    Number of Cartesian functions: 105
    Spherical Harmonics?: true
    Max angular momentum: 3

   => Loading Basis Set <=

    Name: (AUG-CC-PVTZ-DK AUX)
    Role: DECON
    Keyword: BASIS_RELATIVISTIC
    atoms 1, 3 entry H          line    45 file /home/qc/psi4conda/share/psi4/basis/aug-cc-pvtz-dk.gbs func decontract
    atoms 2    entry O          line   324 file /home/qc/psi4conda/share/psi4/basis/aug-cc-pvtz-dk.gbs func decontract

  ==> Pre-Iterations <==

   -------------------------------------------------------
    Irrep   Nso     Nmo     Nalpha   Nbeta   Ndocc  Nsocc
   -------------------------------------------------------
     A1        35      35       0       0       0       0
     A2        12      12       0       0       0       0
     B1        18      18       0       0       0       0
     B2        27      27       0       0       0       0
   -------------------------------------------------------
    Total      92      92       5       4       4       1
   -------------------------------------------------------

 OEINTS: Using relativistic (X2C) overlap, kinetic, and potential integrals.
         ------------------------------------------------------------
         Spin-Free X2C Integrals at the One-Electron Level (SFX2C-1e)
                 by Prakash Verma and Francesco A. Evangelista
         ------------------------------------------------------------

  ==> X2C Options <==

    Computational Basis: AUG-CC-PVTZ-DK
    X2C Basis: (AUG-CC-PVTZ-DK AUX)
    The X2C Hamiltonian will be computed in the X2C Basis

    Comparing only 35 out of 45 elements of H_Dirac

    Comparing only 18 out of 20 elements of H_Dirac

    Comparing only 27 out of 31 elements of H_Dirac

    The 1-norm of |H_X2C - H_Dirac| is: 6.547590108882

    WARNING: The X2C and Dirac Hamiltonians have substatially different eigenvalues!
             This is probably caused by the recontraction of the basis set.

  ==> Integral Setup <==

  Using in-core PK algorithm.
   Calculation information:
      Number of atoms:                   3
      Number of AO shells:              32
      Number of primitives:             52
      Number of atomic orbitals:       105
      Number of basis functions:        92

      Integral cutoff                 1.00e-20
      Number of threads:                 4

  Performing in-core PK
  Using 18305562 doubles for integral storage.
  We computed 171364 shell quartets total.
  Whereas there are 139656 unique shell quartets.
    22.70 percent of shell quartets recomputed by reordering.

  ==> DiskJK: Disk-Based J/K Matrices <==

    J tasked:                  Yes
    K tasked:                  Yes
    wK tasked:                  No
    Memory (MB):             22852
    Schwarz Cutoff:          1E-20

    OpenMP threads:              4

  Minimum eigenvalue in the overlap matrix is 4.1931889209E-04.
  Using Symmetric Orthogonalization.

  SCF Guess: Generalized Wolfsberg-Helmholtz.

  ==> Iterations <==

                        Total Energy        Delta E     RMS |[F,P]|

   @ROHF iter   1:   -69.37061338853806   -6.93706e+01   1.15160e-01 
   @ROHF iter   2:   -75.56707040487416   -6.19646e+00   1.31302e-02 DIIS
   @ROHF iter   3:   -75.68827909930286   -1.21209e-01   3.49070e-03 DIIS
   @ROHF iter   4:   -75.70135483907941   -1.30757e-02   1.38253e-03 DIIS
   @ROHF iter   5:   -75.70385933955725   -2.50450e-03   4.38638e-04 DIIS
   @ROHF iter   6:   -75.70407376523914   -2.14426e-04   6.94542e-05 DIIS
   @ROHF iter   7:   -75.70408402524926   -1.02600e-05   1.25145e-05 DIIS
   @ROHF iter   8:   -75.70408428999787   -2.64749e-07   1.65426e-06 DIIS
   @ROHF iter   9:   -75.70408429503412   -5.03626e-09   4.33397e-07 DIIS
   @ROHF iter  10:   -75.70408429525764   -2.23523e-10   7.80517e-08 DIIS
   @ROHF iter  11:   -75.70408429526603   -8.38440e-12   1.02860e-08 DIIS
   @ROHF iter  12:   -75.70408429526624   -2.13163e-13   1.50223e-09 DIIS
   @ROHF iter  13:   -75.70408429526628   -4.26326e-14   2.65539e-10 DIIS
   @ROHF iter  14:   -75.70408429526614    1.42109e-13   4.27698e-11 DIIS
   @ROHF iter  15:   -75.70408429526623   -8.52651e-14   7.93248e-12 DIIS
   @ROHF iter  16:   -75.70408429526620    2.84217e-14   8.64476e-13 DIIS

  ==> Post-Iterations <==

    Orbital Energies [Eh]
    ---------------------

    Doubly Occupied:                                                      

       1A1   -21.117237     2A1    -1.794559     1B2    -1.167439  
       3A1    -1.044645  

    Singly Occupied:                                                      

       1B1    -0.683639  

    Virtual:                                                              

       4A1    -0.182524     2B2    -0.117641     5A1    -0.060924  
       2B1    -0.057280     6A1    -0.042978     3B2    -0.029264  
       4B2     0.010544     7A1     0.017880     1A2     0.036503  
       3B1     0.069327     8A1     0.071919     5B2     0.162489  
       9A1     0.176232     6B2     0.192290     7B2     0.323927  
      10A1     0.347636    11A1     0.409471     2A2     0.423849  
       4B1     0.423986    12A1     0.512766     5B1     0.554147  
      13A1     0.586411     8B2     0.594597     6B1     0.608371  
       3A2     0.622903     9B2     0.661658    14A1     0.666240  
      15A1     0.726499    10B2     0.740893     7B1     0.746677  
      11B2     0.825962    16A1     0.857401     4A2     0.869265  
      12B2     0.968708     5A2     1.161571     8B1     1.218683  
      17A1     1.246644    13B2     1.403729    18A1     1.448472  
      14B2     1.568778    19A1     1.671393     9B1     1.832195  
       6A2     1.896384    20A1     1.943822    21A1     1.980195  
      10B1     2.002756    15B2     2.052087    22A1     2.108033  
      23A1     2.302583    11B1     2.308499    16B2     2.330057  
       7A2     2.447100    17B2     2.484839    18B2     3.144831  
      24A1     3.289915     8A2     3.569713    12B1     3.574941  
      19B2     3.760786    25A1     3.764809    13B1     3.884320  
      14B1     3.964636     9A2     3.965010    20B2     4.036182  
      26A1     4.080653    27A1     4.186762    21B2     4.251208  
      22B2     4.581487    10A2     4.607987    28A1     4.703032  
      23B2     4.819113    15B1     4.887841    29A1     5.195584  
      30A1     5.598293    24B2     6.071141    16B1     6.202358  
      31A1     6.284818    17B1     6.584561    11A2     6.687926  
      18B1     6.706329    32A1     6.774473    25B2     6.814733  
      12A2     6.854057    33A1     6.945394    26B2     7.289695  
      34A1     7.388311    27B2     8.024139    35A1    13.832403  

    Final Occupation by Irrep:
             A1    A2    B1    B2 
    DOCC [     3,    0,    0,    1 ]
    SOCC [     0,    0,    1,    0 ]

  Energy converged.

  @ROHF Final Energy:   -75.70408429526620

   => Energetics <=

    Nuclear Repulsion Energy =              8.6999280259714453
    One-Electron Energy =                -117.4549031052990813
    Two-Electron Energy =                  33.0508907840614441
    Total Energy =                        -75.7040842952661990



Properties will be evaluated at   0.000000,   0.000000,   0.000000 [a0]

Properties computed using the SCF density matrix

  Nuclear Dipole Moment: [e a0]
     X:     0.0000      Y:     0.0000      Z:    -0.9749

  Electronic Dipole Moment: [e a0]
     X:     0.0000      Y:     0.0000      Z:    -0.0047

  Dipole Moment: [e a0]
     X:     0.0000      Y:     0.0000      Z:    -0.9796     Total:     0.9796

  Dipole Moment: [D]
     X:     0.0000      Y:     0.0000      Z:    -2.4900     Total:     2.4900


*** tstop() called on node10 at Sat Nov  5 10:19:28 2022
Module time:
	user time   =       4.85 seconds =       0.08 minutes
	system time =       0.13 seconds =       0.00 minutes
	total time  =          1 seconds =       0.02 minutes
Total time:
	user time   =       4.85 seconds =       0.08 minutes
	system time =       0.13 seconds =       0.00 minutes
	total time  =          1 seconds =       0.02 minutes
   => Loading Basis Set <=

    Name: (AUG-CC-PVTZ-DK AUX)
    Role: DECON
    Keyword: BASIS_RELATIVISTIC
    atoms 1, 3 entry H          line    45 file /home/qc/psi4conda/share/psi4/basis/aug-cc-pvtz-dk.gbs func decontract
    atoms 2    entry O          line   324 file /home/qc/psi4conda/share/psi4/basis/aug-cc-pvtz-dk.gbs func decontract

 MINTS: Wrapper to libmints.
   by Justin Turney

   Calculation information:
      Number of threads:                 4
      Number of atoms:                   3
      Number of AO shells:              32
      Number of SO shells:              23
      Number of primitives:             52
      Number of atomic orbitals:       105
      Number of basis functions:        92

      Number of irreps:                  4
      Integral cutoff                 1.00e-20
      Number of functions per irrep: [  35   12   18   27 ]

 OEINTS: Using relativistic (X2C) overlap, kinetic, and potential integrals.
         ------------------------------------------------------------
         Spin-Free X2C Integrals at the One-Electron Level (SFX2C-1e)
                 by Prakash Verma and Francesco A. Evangelista
         ------------------------------------------------------------

  ==> X2C Options <==

    Computational Basis: AUG-CC-PVTZ-DK
    X2C Basis: (AUG-CC-PVTZ-DK AUX)
    The X2C Hamiltonian will be computed in the X2C Basis

    Comparing only 35 out of 45 elements of H_Dirac

    Comparing only 18 out of 20 elements of H_Dirac

    Comparing only 27 out of 31 elements of H_Dirac

    The 1-norm of |H_X2C - H_Dirac| is: 6.547590108882

    WARNING: The X2C and Dirac Hamiltonians have substatially different eigenvalues!
             This is probably caused by the recontraction of the basis set.

 OEINTS: Overlap, kinetic, potential, dipole, and quadrupole integrals
         stored in file 35.

      Computing two-electron integrals...done
      Computed 2243288 non-zero two-electron integrals.
        Stored in file 33.


*** tstart() called on node10
*** at Sat Nov  5 10:19:29 2022


	Wfn Parameters:
	--------------------
	Wavefunction         = CC3
	Number of irreps     = 4
	Number of MOs        = 92
	Number of active MOs = 91
	AO-Basis             = NONE
	Semicanonical        = true
	Reference            = ROHF changed to UHF for semicanonical orbitals
	Print Level          = 1

	IRREP	# MOs	# FZDC	# DOCC	# SOCC	# VIRT	# FZVR
	-----	-----	------	------	------	------	------
	 A1	   35	    1	    2	    0	    32	    0
	 A2	   12	    0	    0	    0	    12	    0
	 B1	   18	    0	    0	    1	    17	    0
	 B2	   27	    0	    1	    0	    26	    0
	Transforming integrals...
	IWL integrals will be deleted.
	(OO|OO)...
	Presorting SO-basis two-electron integrals.
	Sorting File: SO Ints (nn|nn) nbuckets = 1
	Transforming the one-electron integrals and constructing Fock matrices
	Starting AA/AB first half-transformation.
	Sorting AA/AB half-transformed integrals.
	Starting BB first half-transformation.
	Sorting BB half-transformed integrals.
	First half integral transformation complete.
	Starting AA second half-transformation.
	Starting AB second half-transformation.
	Starting BB second half-transformation.
	Two-electron integral transformation complete.
	(OO|OV)...
	Starting AA second half-transformation.
	Starting AB second half-transformation.
	Starting BB second half-transformation.
	Two-electron integral transformation complete.
	(OO|VV)...
	Starting AA second half-transformation.
	Starting AB second half-transformation.
	Starting BB second half-transformation.
	Two-electron integral transformation complete.
	(OV|OO)...
	Starting AA/AB first half-transformation.
	Sorting AA/AB half-transformed integrals.
	Starting BB first half-transformation.
	Sorting BB half-transformed integrals.
	First half integral transformation complete.
	Starting AA second half-transformation.
	Starting AB second half-transformation.
	Starting BB second half-transformation.
	Two-electron integral transformation complete.
	(OV|OV)...
	Starting AA second half-transformation.
	Starting AB second half-transformation.
	Starting BB second half-transformation.
	Two-electron integral transformation complete.
	(OV|VV)...
	Starting AA second half-transformation.
	Starting AB second half-transformation.
	Starting BB second half-transformation.
	Two-electron integral transformation complete.
	(VV|OO)...
	Starting AA/AB first half-transformation.
	Sorting AA/AB half-transformed integrals.
	Starting BB first half-transformation.
	Sorting BB half-transformed integrals.
	First half integral transformation complete.
	Starting AA second half-transformation.
	Starting AB second half-transformation.
	Starting BB second half-transformation.
	Two-electron integral transformation complete.
	(VV|OV)...
	Starting AA second half-transformation.
	Starting AB second half-transformation.
	Starting BB second half-transformation.
	Two-electron integral transformation complete.
	(VV|VV)...
	Starting AA second half-transformation.
	Starting AB second half-transformation.
	Starting BB second half-transformation.
	Two-electron integral transformation complete.
	Frozen core energy     =    -61.24574364914334

	Size of irrep 0 of <AB|CD> integrals:      1.047 (MW) /      8.372 (MB)
	Size of irrep 1 of <AB|CD> integrals:      0.682 (MW) /      5.458 (MB)
	Size of irrep 2 of <AB|CD> integrals:      0.733 (MW) /      5.862 (MB)
	Size of irrep 3 of <AB|CD> integrals:      1.073 (MW) /      8.586 (MB)
	Total:                                     3.535 (MW) /     28.279 (MB)

	Size of irrep 0 of <ab|cd> integrals:      1.082 (MW) /      8.653 (MB)
	Size of irrep 1 of <ab|cd> integrals:      0.726 (MW) /      5.807 (MB)
	Size of irrep 2 of <ab|cd> integrals:      0.789 (MW) /      6.308 (MB)
	Size of irrep 3 of <ab|cd> integrals:      1.098 (MW) /      8.786 (MB)
	Total:                                     3.694 (MW) /     29.555 (MB)

	Size of irrep 0 of <Ab|Cd> integrals:      4.622 (MW) /     36.980 (MB)
	Size of irrep 1 of <Ab|Cd> integrals:      2.816 (MW) /     22.525 (MB)
	Size of irrep 2 of <Ab|Cd> integrals:      3.042 (MW) /     24.332 (MB)
	Size of irrep 3 of <Ab|Cd> integrals:      4.343 (MW) /     34.744 (MB)
	Total:                                    14.823 (MW) /    118.582 (MB)

	Size of irrep 0 of <IA|BC> integrals:      0.228 (MW) /      1.826 (MB)
	Size of irrep 1 of <IA|BC> integrals:      0.111 (MW) /      0.885 (MB)
	Size of irrep 2 of <IA|BC> integrals:      0.134 (MW) /      1.068 (MB)
	Size of irrep 3 of <IA|BC> integrals:      0.199 (MW) /      1.591 (MB)
	Total:                                     0.671 (MW) /      5.371 (MB)

	Size of irrep 0 of <ia|bc> integrals:      0.195 (MW) /      1.561 (MB)
	Size of irrep 1 of <ia|bc> integrals:      0.072 (MW) /      0.573 (MB)
	Size of irrep 2 of <ia|bc> integrals:      0.085 (MW) /      0.682 (MB)
	Size of irrep 3 of <ia|bc> integrals:      0.176 (MW) /      1.409 (MB)
	Total:                                     0.528 (MW) /      4.224 (MB)

	Size of irrep 0 of <Ia|Bc> integrals:      0.232 (MW) /      1.858 (MB)
	Size of irrep 1 of <Ia|Bc> integrals:      0.114 (MW) /      0.913 (MB)
	Size of irrep 2 of <Ia|Bc> integrals:      0.140 (MW) /      1.116 (MB)
	Size of irrep 3 of <Ia|Bc> integrals:      0.200 (MW) /      1.601 (MB)
	Total:                                     0.686 (MW) /      5.487 (MB)

	Size of irrep 0 of <iA|bC> integrals:      0.194 (MW) /      1.548 (MB)
	Size of irrep 1 of <iA|bC> integrals:      0.069 (MW) /      0.550 (MB)
	Size of irrep 2 of <iA|bC> integrals:      0.080 (MW) /      0.642 (MB)
	Size of irrep 3 of <iA|bC> integrals:      0.175 (MW) /      1.400 (MB)
	Total:                                     0.518 (MW) /      4.141 (MB)

	Size of irrep 0 of tIjAb amplitudes:       0.011 (MW) /      0.086 (MB)
	Size of irrep 1 of tIjAb amplitudes:       0.002 (MW) /      0.013 (MB)
	Size of irrep 2 of tIjAb amplitudes:       0.003 (MW) /      0.028 (MB)
	Size of irrep 3 of tIjAb amplitudes:       0.008 (MW) /      0.067 (MB)
	Total:                                     0.024 (MW) /      0.194 (MB)

	Nuclear Rep. energy          =      8.69992802597145
	SCF energy                   =    -75.70408429526620
	One-electron energy          =    -37.19792570903491
	Two-electron (AA) energy     =      3.69329358751107
	Two-electron (BB) energy     =      1.74862098770374
	Two-electron (AB) energy     =      8.59774246172572
	Two-electron energy          =     14.03965703694052
	Reference energy             =    -75.70408429526627

*** tstop() called on node10 at Sat Nov  5 10:19:32 2022
Module time:
	user time   =       2.27 seconds =       0.04 minutes
	system time =       1.00 seconds =       0.02 minutes
	total time  =          3 seconds =       0.05 minutes
Total time:
	user time   =       8.63 seconds =       0.14 minutes
	system time =       1.19 seconds =       0.02 minutes
	total time  =          5 seconds =       0.08 minutes

*** tstart() called on node10
*** at Sat Nov  5 10:19:32 2022

            **************************
            *                        *
            *        CCENERGY        *
            *                        *
            **************************

    Nuclear Rep. energy (wfn)     =    8.699928025971445
    SCF energy          (wfn)     =  -75.704084295266199
    Reference energy    (file100) =  -75.704084295266270

    Input parameters:
    -----------------
    Wave function   =     CC3
    Reference wfn   =     ROHF changed to UHF for Semicanonical Orbitals
    Brueckner       =     No
    Memory (Mbytes) =     31950.0
    Maxiter         =    500
    R_Convergence   =     1.0e-12
    E_Convergence   =     1.0e-06
    Restart         =     Yes
    DIIS            =     Yes
    AO Basis        =     NONE
    ABCD            =     NEW
    Cache Level     =     0
    Cache Type      =     LRU
    Print Level     =     1
    Num. of threads =     4
    # Amps to Print =     10
    Print MP2 Amps? =     No
    Analyze T2 Amps =     No
    Print Pair Ener =     No
    Local CC        =     No
    T3 Ws incore    =     No
    SCS-MP2         =     False
    SCSN-MP2        =     False
    SCS-CCSD        =     False

MP2 correlation energy -0.2077616028135025
                Solving CC Amplitude Equations
                ------------------------------
  Iter             Energy              RMS        T1Diag      D1Diag    New D1Diag    D2Diag
  ----     ---------------------    ---------   ----------  ----------  ----------   --------
     0        -0.207820312067815    0.000e+00    0.013533    0.000000    0.000000    0.000000
     1        -0.222774196458929    3.375e-02    0.016750    0.000000    0.000000    0.000000
     2        -0.227860251326191    1.238e-02    0.018538    0.000000    0.000000    0.000000
     3        -0.228171991688094    4.234e-03    0.019140    0.000000    0.000000    0.000000
     4        -0.228183645722236    1.851e-03    0.019220    0.000000    0.000000    0.000000
     5        -0.228222241074614    7.758e-04    0.019193    0.000000    0.000000    0.000000
     6        -0.228225963188595    2.601e-04    0.019156    0.000000    0.000000    0.000000
     7        -0.228228440703966    1.000e-04    0.019144    0.000000    0.000000    0.000000
     8        -0.228228288038216    3.469e-05    0.019142    0.000000    0.000000    0.000000
     9        -0.228228246879259    1.160e-05    0.019142    0.000000    0.000000    0.000000
    10        -0.228228378224639    4.335e-06    0.019142    0.000000    0.000000    0.000000
    11        -0.228228309627797    1.490e-06    0.019142    0.000000    0.000000    0.000000
    12        -0.228228290833543    4.517e-07    0.019143    0.000000    0.000000    0.000000
    13        -0.228228279153648    1.252e-07    0.019143    0.000000    0.000000    0.000000
    14        -0.228228278792773    3.743e-08    0.019143    0.000000    0.000000    0.000000
    15        -0.228228278760246    1.420e-08    0.019143    0.000000    0.000000    0.000000
    16        -0.228228278682636    6.447e-09    0.019143    0.000000    0.000000    0.000000
    17        -0.228228278569074    2.948e-09    0.019143    0.000000    0.000000    0.000000
    18        -0.228228278493310    1.239e-09    0.019143    0.000000    0.000000    0.000000
    19        -0.228228278481171    4.998e-10    0.019143    0.000000    0.000000    0.000000
    20        -0.228228278482221    1.751e-10    0.019143    0.000000    0.000000    0.000000
    21        -0.228228278481343    6.066e-11    0.019143    0.000000    0.000000    0.000000
    22        -0.228228278481474    2.134e-11    0.019143    0.000000    0.000000    0.000000
    23        -0.228228278481456    6.484e-12    0.019143    0.000000    0.000000    0.000000
    24        -0.228228278481504    2.161e-12    0.019143    0.000000    0.000000    0.000000
    25        -0.228228278481510    6.196e-13    0.019143    0.000000    0.000000    0.000000

    Iterations converged.


    Largest TIA Amplitudes:
              0  14        -0.0099002789
              0   0        -0.0091360157
              0   6         0.0083622448
              0  15        -0.0079352927
              0   5         0.0078466047
              0  17         0.0077544630
              0   7         0.0077133787
              0   2         0.0072649240
              2  44         0.0063368901
              1  17        -0.0062269574

    Largest Tia Amplitudes:
              1   1         0.0109679101
              2  63         0.0108791099
              0   0         0.0101239746
              2  62         0.0097886425
              0   2         0.0097769969
              2  66        -0.0088502452
              1   0         0.0087721887
              0   7        -0.0081485743
              0  17        -0.0081273153
              1   4        -0.0080781170

    Largest TIJAB Amplitudes:
      2   1  47   9        -0.0082390455
      3   2  33   6         0.0079331136
      3   2  65  47        -0.0079103358
      2   1  51  17         0.0077968359
      3   2  61  47         0.0070273862
      3   2  62  47         0.0070121041
      2   1  48   9        -0.0069863270
      2   1  46   7         0.0069713398
      3   1  65   9        -0.0069678212
      3   1  61   9         0.0066484558

    Largest Tijab Amplitudes:
      1   0  47  44         0.0081389933
      2   0  44  33         0.0078070258
      1   0  52  44         0.0074698885
      2   1  63   6         0.0072366533
      2   1  66   9        -0.0070493683
      2   1  66   6        -0.0068705667
      2   1  62   9         0.0064816413
      2   1  67   6        -0.0063047054
      2   1  66   1         0.0061425603
      2   0  44  36         0.0060051614

    Largest TIjAb Amplitudes:
      3   2  65  66        -0.0193635637
      1   1   9   9        -0.0178172125
      3   2  62  66         0.0177083641
      3   2  65  63         0.0176163552
      2   0   0  44        -0.0169502609
      3   2  62  63        -0.0165788919
      3   2  61  66         0.0160268642
      2   0   6  44         0.0158863735
      2   0  14  44        -0.0157394162
      1   0  51  44         0.0150644764

    SCF energy       (wfn)                    =  -75.704084295266199
    Reference energy (file100)                =  -75.704084295266270

    Opposite-spin MP2 correlation energy      =   -0.158611589931793
    Same-spin MP2 correlation energy          =   -0.045540529303155
    MP2 correlation energy                    =   -0.207761602813502
      * MP2 total energy                      =  -75.911845898079775
    CC3 correlation energy                    =   -0.228228278481510
      * CC3 total energy                      =  -75.932312573747780


*** tstop() called on node10 at Sat Nov  5 10:21:30 2022
Module time:
	user time   =     434.52 seconds =       7.24 minutes
	system time =      33.38 seconds =       0.56 minutes
	total time  =        118 seconds =       1.97 minutes
Total time:
	user time   =     443.15 seconds =       7.39 minutes
	system time =      34.57 seconds =       0.58 minutes
	total time  =        123 seconds =       2.05 minutes

*** tstart() called on node10
*** at Sat Nov  5 10:21:30 2022


			**************************
			*                        *
			*         CCHBAR         *
			*                        *
			**************************

Dots of (HeT1)c in names "CC3 Wxxx" in CC3_HET1 
Wamef terms
	<WAMEF|WAMEF> =   13.2817081949
	<Wamef|Wamef> =   10.8453852601
	<WAmEf|WAmEf> =    9.3020312666
	<WaMeF|WaMeF> =   12.6362626081
Wmnie terms
	<WMNIE (M>N,IE)|WMNIE> =    0.7439685975
	<Wmnie (m>n,ie)|Wmnie> =    0.3274140878
	<WMnIe (Mn,Ie)|WMnIe> =    0.7245845963
	<WmNiE (mN,iE)|WmNiE> =    0.6118723014
	<WMNIE(M>N,EI)|WMNIE(M>N,EI)> =    0.7439685975
	<Wmnie(m>n,ei)|Wmnie(m>n,ei)> =    0.3274140878
	<WMnIe(Mn,eI)|WMnIe(Mn,eI)> =    0.7245845963
	<WmNiE(mN,Ei)|WmNiE(mN,Ei)> =    0.6118723014
Doing Wmnij terms.
	<WMNIJ (M>N,I>J)|WMNIJ> =    9.1914403186
	<Wmnij (m>n,i>j)|Wmnij> =    4.0249918985
	<WMnIj (Mn,Ij)|WMnIj> =    6.3592571198
Doing Wmbij terms.
	<WMBIJ (MB,I>J)|WMBIJ> =    0.7494341603
	<WMBIJ (I>J,MB)|WMBIJ> =    0.7494341603
	<Wmbij (mb,i>j)|Wmbij> =    0.3333243753
	<Wmbij (i>j,mb)|Wmbij> =    0.3333243753
	<WMbIj (Mb,Ij)|WMbIj> =    0.7281263531
	<WMbIj (Ij,Mb)|WMbIj> =    0.7281263531
	<WmBiJ (mB,iJ)|WmBiJ> =    0.6152980851
	<WmBiJ (iJ,mB)|WmBiJ> =    0.6152980851
Doing Wmbej terms.
	<WMBEJ (all ME,JB)|WMBEJ> =   81.5346887219
	<Wmbej|Wmbej> =   61.6865742396
	<WMbEj|WMbEj> =    1.0268715561
	<WmBeJ|WmBeJ> =    1.0365448528
	<WMbeJ|WMbeJ> =   94.5172265915
	<WmBEj|WmBEj> =   67.6458432233
Doing Wabei terms.
	<WABEI (IE,B>A) |WABEI> =   13.3368352595
	<Wabei (ie,b>a)|Wabei> =   10.9473290773
	<WAbEi (iE,bA)|WAbEi> =    9.3798073842
	<WAbEi (iE,Ba)|WAbEi> =   12.6725510082

*** tstop() called on node10 at Sat Nov  5 10:21:31 2022
Module time:
	user time   =       3.16 seconds =       0.05 minutes
	system time =       0.58 seconds =       0.01 minutes
	total time  =          1 seconds =       0.02 minutes
Total time:
	user time   =     446.31 seconds =       7.44 minutes
	system time =      35.15 seconds =       0.59 minutes
	total time  =        124 seconds =       2.07 minutes

*** tstart() called on node10
*** at Sat Nov  5 10:21:31 2022


	**********************************************************
	*  CCEOM: An Equation of Motion Coupled Cluster Program  *
	**********************************************************

	Nuclear Rep. energy (wfn)     =    8.699928025971445
	SCF energy          (wfn)     =  -75.704084295266199
	Reference energy    (file100) =  -75.704084295266270
	CC3 energy          (file100) =   -0.228228278481510

	Input parameters:
	-----------------
	Reference wfn   = ROHF changed to UHF for Semicanonical Orbitals
	Reference EOM wfn=     UHF
	Memory (Mbytes) =  31950.0
	ABCD            =     NEW
	Cache Level     =    0
	Cache Type      =     LRU
	T3 Ws incore  =      No
	Num. of threads =     4
	Local CC        =     No


	CCEOM parameters:
	-----------------
	States sought per irrep     = A1 0, A2 0, B1 1, B2 0,
	Max. number of iterations   =   500
	Vectors stored per root     =    12
	Print HbarSS iterations?    =     0
	Excitation range for HBarSS =     2
	Eigenvalue tolerance        = 1.0e-06
	Eigenvalue toleranceSS      = 1.0e-06
	Residual vector tolerance   = 1.0e-08
	Residual vector toleranceSS = 1.0e-06
	Complex tolerance           = 1.0e-12
	Root for properties         =     1
	Sym of state for properties =     A1
	Guess vectors taken from    = SINGLES
	Restart EOM CC3             = NO
	Collapse with last vector   = YES


Symmetry of ground state: B1
Symmetry of excited state: B1
Symmetry of right eigenvector: A1
Obtaining initial guess from singles-singles block of Hbar...Done.

Iter=1    L=1     Root    EOM Energy     Delta E   Res. Norm    Conv?
                     1   0.5710098901   5.71e-01    5.13e-01      N
Iter=2    L=2     Root    EOM Energy     Delta E   Res. Norm    Conv?
                     1   0.4802702474  -9.07e-02    9.75e-02      N
Iter=3    L=3     Root    EOM Energy     Delta E   Res. Norm    Conv?
                     1   0.4739656689  -6.30e-03    6.46e-02      N
Iter=4    L=4     Root    EOM Energy     Delta E   Res. Norm    Conv?
                     1   0.4706704983  -3.30e-03    4.67e-02      N
Iter=5    L=5     Root    EOM Energy     Delta E   Res. Norm    Conv?
                     1   0.4694330405  -1.24e-03    2.72e-02      N
Iter=6    L=6     Root    EOM Energy     Delta E   Res. Norm    Conv?
                     1   0.4689948165  -4.38e-04    1.35e-02      N
Iter=7    L=7     Root    EOM Energy     Delta E   Res. Norm    Conv?
                     1   0.4688556764  -1.39e-04    8.83e-03      N
Iter=8    L=8     Root    EOM Energy     Delta E   Res. Norm    Conv?
                     1   0.4687782571  -7.74e-05    6.30e-03      N
Iter=9    L=9     Root    EOM Energy     Delta E   Res. Norm    Conv?
                     1   0.4687419729  -3.63e-05    3.80e-03      N
Iter=10   L=10    Root    EOM Energy     Delta E   Res. Norm    Conv?
                     1   0.4687311467  -1.08e-05    2.84e-03      N
Iter=11   L=11    Root    EOM Energy     Delta E   Res. Norm    Conv?
                     1   0.4687218650  -9.28e-06    2.32e-03      N
Iter=12   L=12    Root    EOM Energy     Delta E   Res. Norm    Conv?
                     1   0.4687185660  -3.30e-06    1.37e-03      N
Iter=13   L=2     Root    EOM Energy     Delta E   Res. Norm    Conv?
                     1   0.4687185660   4.44e-16    1.37e-03      N
Iter=14   L=3     Root    EOM Energy     Delta E   Res. Norm    Conv?
                     1   0.4687177120  -8.54e-07    6.70e-04      N
Iter=15   L=4     Root    EOM Energy     Delta E   Res. Norm    Conv?
                     1   0.4687179590   2.47e-07    3.98e-04      N
Iter=16   L=5     Root    EOM Energy     Delta E   Res. Norm    Conv?
                     1   0.4687172330  -7.26e-07    2.30e-04      N
Iter=17   L=6     Root    EOM Energy     Delta E   Res. Norm    Conv?
                     1   0.4687168184  -4.15e-07    9.90e-05      N
Iter=18   L=7     Root    EOM Energy     Delta E   Res. Norm    Conv?
                     1   0.4687169118   9.34e-08    3.83e-05      N
Iter=19   L=8     Root    EOM Energy     Delta E   Res. Norm    Conv?
                     1   0.4687168616  -5.02e-08    1.51e-05      N
Iter=20   L=9     Root    EOM Energy     Delta E   Res. Norm    Conv?
                     1   0.4687168564  -5.22e-09    6.66e-06      N
Iter=21   L=10    Root    EOM Energy     Delta E   Res. Norm    Conv?
                     1   0.4687168530  -3.34e-09    2.73e-06      N
Iter=22   L=11    Root    EOM Energy     Delta E   Res. Norm    Conv?
                     1   0.4687168556   2.59e-09    1.04e-06      N
Iter=23   L=12    Root    EOM Energy     Delta E   Res. Norm    Conv?
                     1   0.4687168596   3.98e-09    4.69e-07      N
Iter=24   L=2     Root    EOM Energy     Delta E   Res. Norm    Conv?
                     1   0.4687168596   2.24e-14    4.69e-07      N
Iter=25   L=3     Root    EOM Energy     Delta E   Res. Norm    Conv?
                     1   0.4687168603   7.15e-10    3.33e-07      N
Iter=26   L=4     Root    EOM Energy     Delta E   Res. Norm    Conv?
                     1   0.4687168608   4.59e-10    2.37e-07      N
Iter=27   L=5     Root    EOM Energy     Delta E   Res. Norm    Conv?
                     1   0.4687168615   7.13e-10    1.45e-07      N
Iter=28   L=6     Root    EOM Energy     Delta E   Res. Norm    Conv?
                     1   0.4687168617   1.97e-10    8.81e-08      N
Iter=29   L=7     Root    EOM Energy     Delta E   Res. Norm    Conv?
                     1   0.4687168619   2.04e-10    5.80e-08      N
Iter=30   L=8     Root    EOM Energy     Delta E   Res. Norm    Conv?
                     1   0.4687168619   1.21e-11    4.00e-08      N
Iter=31   L=9     Root    EOM Energy     Delta E   Res. Norm    Conv?
                     1   0.4687168619  -9.97e-12    2.47e-08      N
Iter=32   L=10    Root    EOM Energy     Delta E   Res. Norm    Conv?
                     1   0.4687168619   4.10e-12    1.47e-08      N
Iter=33   L=11    Root    EOM Energy     Delta E   Res. Norm    Conv?
                     1   0.4687168619  -2.92e-11    9.69e-09      Y
Completed EOM_CCSD
Collapsing to only 1 vector(s).
Copying root 1 to CC3_MISC file.
Setting initial CC3 eigenvalue to    0.4687168619
Iter=1    L=1     Root    EOM Energy     Delta E   Res. Norm    Conv?
                     1   0.4633493297  -5.37e-03    4.35e-02      N
Iter=2    L=2     Root    EOM Energy     Delta E   Res. Norm    Conv?
                     1   0.4617934847  -1.56e-03    2.71e-02      N
Iter=3    L=3     Root    EOM Energy     Delta E   Res. Norm    Conv?
                     1   0.4603396118  -1.45e-03    4.26e-02      N
Iter=4    L=4     Root    EOM Energy     Delta E   Res. Norm    Conv?
                     1   0.4585221890  -1.82e-03    2.51e-02      N
Iter=5    L=5     Root    EOM Energy     Delta E   Res. Norm    Conv?
                     1   0.4581278280  -3.94e-04    1.29e-02      N
Iter=6    L=6     Root    EOM Energy     Delta E   Res. Norm    Conv?
                     1   0.4580026519  -1.25e-04    1.21e-02      N
Iter=7    L=7     Root    EOM Energy     Delta E   Res. Norm    Conv?
                     1   0.4578621686  -1.40e-04    9.16e-03      N
Iter=8    L=8     Root    EOM Energy     Delta E   Res. Norm    Conv?
                     1   0.4577819266  -8.02e-05    5.22e-03      N
Iter=9    L=9     Root    EOM Energy     Delta E   Res. Norm    Conv?
                     1   0.4577766257  -5.30e-06    2.33e-03      N
Iter=10   L=10    Root    EOM Energy     Delta E   Res. Norm    Conv?
                     1   0.4577757257  -9.00e-07    1.16e-03      N
Collapsing to 2 vector(s).
Change in CC3 energy from last iterated value   -0.0109411362
Iter=11   L=2     Root    EOM Energy     Delta E   Res. Norm    Conv?
                     1   0.4578035942   2.79e-05    1.16e-03      N
Iter=12   L=3     Root    EOM Energy     Delta E   Res. Norm    Conv?
                     1   0.4578015931  -2.00e-06    7.55e-04      N
Iter=13   L=4     Root    EOM Energy     Delta E   Res. Norm    Conv?
                     1   0.4578013759  -2.17e-07    4.84e-04      N
Iter=14   L=5     Root    EOM Energy     Delta E   Res. Norm    Conv?
                     1   0.4578017913   4.15e-07    2.26e-04      N
Iter=15   L=6     Root    EOM Energy     Delta E   Res. Norm    Conv?
                     1   0.4578011444  -6.47e-07    1.19e-04      N
Iter=16   L=7     Root    EOM Energy     Delta E   Res. Norm    Conv?
                     1   0.4578011156  -2.88e-08    7.39e-05      N
Iter=17   L=8     Root    EOM Energy     Delta E   Res. Norm    Conv?
                     1   0.4578014161   3.00e-07    5.31e-05      N
Iter=18   L=9     Root    EOM Energy     Delta E   Res. Norm    Conv?
                     1   0.4578014835   6.74e-08    4.49e-05      N
Iter=19   L=10    Root    EOM Energy     Delta E   Res. Norm    Conv?
                     1   0.4578014621  -2.14e-08    3.29e-05      N
Collapsing to 2 vector(s).
Change in CC3 energy from last iterated value    0.0000257364
Iter=20   L=2     Root    EOM Energy     Delta E   Res. Norm    Conv?
                     1   0.4578013649  -9.72e-08    3.25e-05      N
Iter=21   L=3     Root    EOM Energy     Delta E   Res. Norm    Conv?
                     1   0.4578013963   3.14e-08    1.79e-05      N
Iter=22   L=4     Root    EOM Energy     Delta E   Res. Norm    Conv?
                     1   0.4578014138   1.75e-08    9.63e-06      N
Iter=23   L=5     Root    EOM Energy     Delta E   Res. Norm    Conv?
                     1   0.4578014250   1.12e-08    4.40e-06      N
Iter=24   L=6     Root    EOM Energy     Delta E   Res. Norm    Conv?
                     1   0.4578014269   1.97e-09    1.84e-06      N
Iter=25   L=7     Root    EOM Energy     Delta E   Res. Norm    Conv?
                     1   0.4578014268  -1.68e-10    9.20e-07      N
Iter=26   L=8     Root    EOM Energy     Delta E   Res. Norm    Conv?
                     1   0.4578014255  -1.29e-09    4.47e-07      N
Iter=27   L=9     Root    EOM Energy     Delta E   Res. Norm    Conv?
                     1   0.4578014255  -5.06e-12    2.23e-07      N
Iter=28   L=10    Root    EOM Energy     Delta E   Res. Norm    Conv?
                     1   0.4578014255   3.53e-11    1.48e-07      N
Collapsing to 2 vector(s).
Change in CC3 energy from last iterated value   -0.0000000366
Iter=29   L=2     Root    EOM Energy     Delta E   Res. Norm    Conv?
                     1   0.4578014256   1.38e-10    1.48e-07      N
Iter=30   L=3     Root    EOM Energy     Delta E   Res. Norm    Conv?
                     1   0.4578014256  -4.60e-11    9.63e-08      N
Iter=31   L=4     Root    EOM Energy     Delta E   Res. Norm    Conv?
                     1   0.4578014256  -9.76e-13    5.53e-08      N
Iter=32   L=5     Root    EOM Energy     Delta E   Res. Norm    Conv?
                     1   0.4578014256   1.93e-11    2.49e-08      N
Iter=33   L=6     Root    EOM Energy     Delta E   Res. Norm    Conv?
                     1   0.4578014256   3.17e-12    1.13e-08      N
Iter=34   L=7     Root    EOM Energy     Delta E   Res. Norm    Conv?
                     1   0.4578014256   7.56e-12    5.42e-09      Y
Collapsing to only 1 vector(s).
Change in CC3 energy from last iterated value    0.0000000001

Procedure converged for 1 root(s).
Energy written to CC_INFO:Etot  -75.4745111481
States per irrep written to CC_INFO.
<R|R> =   0.9999999999999997
EOM CC3 R0 for root 0 =  -0.00427642486

Final Energetic Summary for Converged Roots of Irrep B1
                     Excitation Energy              Total Energy
                (eV)     (cm^-1)     (au)             (au)
EOM State 1     12.457   100475.8   0.4578014256   -75.474511148127

Largest components of excited wave function #1:
 RIA (libdpd indices) : (cscf notation)
         1 >   0      :       3a1 >    4a1 :   -0.4951558602
         1 >   2      :       3a1 >    6a1 :    0.1674126635
         1 >   5      :       3a1 >    9a1 :    0.1357404520
         1 >   1      :       3a1 >    5a1 :   -0.1330396716
         1 >   4      :       3a1 >    8a1 :   -0.0516825240
 Ria (libdpd indices) : (cscf notation)
         1 >   0      :       3a1 >    4a1 :    0.5824619743
         1 >   2      :       3a1 >    6a1 :    0.2271669743
         1 >   5      :       3a1 >    9a1 :    0.1700420394
         1 >   1      :       3a1 >    5a1 :    0.1446374018
         1 >   4      :       3a1 >    8a1 :   -0.0590855524
 RIjAb (libdpd indices)     : (cscf notation)
        0   1 >   0   0     :    1b1    3a1 >    4a1    1b1 :    0.3349282348
        0   1 >   2   0     :    1b1    3a1 >    6a1    1b1 :   -0.1134126979
        0   1 >   0   1     :    1b1    3a1 >    4a1    2b1 :    0.0966541395
        0   1 >   5   0     :    1b1    3a1 >    9a1    1b1 :   -0.0923626975
        0   1 >   1   0     :    1b1    3a1 >    5a1    1b1 :    0.0878723736
 RIJAB (libdpd indices)     : (cscf notation)
        0   1 >   3   0     :    1b1    3a1 >    5b1    4a1 :   -0.0195379273
        0   1 >   0   0     :    1b1    3a1 >    2b1    4a1 :    0.0193976282
        0   1 >   4   0     :    1b2    3a1 >    6b2    4a1 :   -0.0189269266
        0   1 >   1   0     :    1b2    3a1 >    3b2    4a1 :    0.0183393109
        0   1 >   0   0     :    1b2    3a1 >    2b2    4a1 :    0.0174303601
 Rijab (libdpd indices)     : (cscf notation)
        0   1 >   4   0     :    1b2    3a1 >    6b2    4a1 :    0.0238236053
        0   1 >   1   0     :    1b2    3a1 >    3b2    4a1 :   -0.0233471908
        0   1 >   0   0     :    1b2    3a1 >    2b2    4a1 :   -0.0209154055
        0   1 >   8   0     :    1b2    3a1 >   10b2    4a1 :    0.0131835138
        1   0 >   5   0     :    3a1    2a1 >    9a1    4a1 :    0.0095137288

	Putting into environment energy for root of R irrep 1 and root 1.
	Putting into environment CURRENT ENERGY:              -75.4745111481

	Total # of sigma evaluations: 68

*** tstop() called on node10 at Sat Nov  5 10:28:46 2022
Module time:
	user time   =    1631.50 seconds =      27.19 minutes
	system time =     106.43 seconds =       1.77 minutes
	total time  =        435 seconds =       7.25 minutes
Total time:
	user time   =    2077.81 seconds =      34.63 minutes
	system time =     141.58 seconds =       2.36 minutes
	total time  =        559 seconds =       9.32 minutes

    Psi4 stopped on: Saturday, 05 November 2022 10:28AM
    Psi4 wall time for execution: 0:09:19.03

*** Psi4 exiting successfully. Buy a developer a beer!
