
    -----------------------------------------------------------------------
          Psi4: An Open-Source Ab Initio Electronic Structure Package
                               Psi4 1.2 release

                         Git: Rev {HEAD} 9d4a61c 


    R. M. Parrish, L. A. Burns, D. G. A. Smith, A. C. Simmonett,
    A. E. DePrince III, E. G. Hohenstein, U. Bozkaya, A. Yu. Sokolov,
    R. Di Remigio, R. M. Richard, J. F. Gonthier, A. M. James,
    H. R. McAlexander, A. Kumar, M. Saitow, X. Wang, B. P. Pritchard,
    P. Verma, H. F. Schaefer III, K. Patkowski, R. A. King, E. F. Valeev,
    F. A. Evangelista, J. M. Turney, T. D. Crawford, and C. D. Sherrill,
    J. Chem. Theory Comput. 13(7) pp 3185--3197 (2017).
    (doi: 10.1021/acs.jctc.7b00174)


                         Additional Contributions by
    P. Kraus, H. Kruse, M. H. Lechner, M. C. Schieber, and R. A. Shaw

    -----------------------------------------------------------------------


    Psi4 started on: Saturday, 05 November 2022 10:19AM

    Process ID: 8286
    Host:       node11
    PSIDATADIR: /home/qc/psi4conda/share/psi4
    Memory:     500.0 MiB
    Threads:    4
    
  ==> Input File <==

--------------------------------------------------------------------------
#h2o SPECIAL eom-cc3
memory 31950 mb

molecule h2o{
1 2
H        0.0000000000       -1.5643753833       -0.9743455573
O        0.0000000000        0.0000000000        0.1324269247
H        0.0000000000        1.5643753833       -0.9743455573

units bohr
}
 
set globals {
 reference rohf
 basis aug-cc-pvtz-dk
 freeze_core true
 cachelevel=0
 relativistic x2c
 maxiter=500
 dertype none
 ints_tolerance 20
 roots_per_irrep = [0,0,1,0]
}

set scf d_convergence 12
set ccenergy r_convergence 12
set cceom r_convergence 8

energy('eom-cc3')--------------------------------------------------------------------------

  Memory set to  29.756 GiB by Python driver.

*** tstart() called on node11
*** at Sat Nov  5 10:19:23 2022

   => Loading Basis Set <=

    Name: AUG-CC-PVTZ-DK
    Role: ORBITAL
    Keyword: BASIS
    atoms 1, 3 entry H          line    45 file /home/qc/psi4conda/share/psi4/basis/aug-cc-pvtz-dk.gbs 
    atoms 2    entry O          line   324 file /home/qc/psi4conda/share/psi4/basis/aug-cc-pvtz-dk.gbs 


         ---------------------------------------------------------
                                   SCF
            by Justin Turney, Rob Parrish, Andy Simmonett
                             and Daniel Smith
                             ROHF Reference
                        4 Threads,  30469 MiB Core
         ---------------------------------------------------------

  ==> Geometry <==

    Molecular point group: c2v
    Full point group: C2v

    Geometry (in Bohr), charge = 1, multiplicity = 2:

       Center              X                  Y                   Z               Mass       
    ------------   -----------------  -----------------  -----------------  -----------------
         H            0.000000000000    -1.564375383300    -0.982908179936     1.007825032070
         O           -0.000000000000     0.000000000000     0.123864302064    15.994914619560
         H           -0.000000000000     1.564375383300    -0.982908179936     1.007825032070

  Running in c2v symmetry.

  Rotational constants: A =     27.45414  B =     12.20386  C =      8.44839 [cm^-1]
  Rotational constants: A = 823054.31331  B = 365862.46025  C = 253276.49730 [MHz]
  Nuclear repulsion =    8.669028407892934

  Charge       = 1
  Multiplicity = 2
  Electrons    = 9
  Nalpha       = 5
  Nbeta        = 4

  ==> Algorithm <==

  SCF Algorithm Type is PK.
  DIIS enabled.
  MOM disabled.
  Fractional occupation disabled.
  Guess Type is GWH.
  Energy threshold   = 1.00e-08
  Density threshold  = 1.00e-12
  Integral threshold = 1.00e-20

  ==> Primary Basis <==

  Basis Set: AUG-CC-PVTZ-DK
    Blend: AUG-CC-PVTZ-DK
    Number of shells: 32
    Number of basis function: 92
    Number of Cartesian functions: 105
    Spherical Harmonics?: true
    Max angular momentum: 3

   => Loading Basis Set <=

    Name: (AUG-CC-PVTZ-DK AUX)
    Role: DECON
    Keyword: BASIS_RELATIVISTIC
    atoms 1, 3 entry H          line    45 file /home/qc/psi4conda/share/psi4/basis/aug-cc-pvtz-dk.gbs func decontract
    atoms 2    entry O          line   324 file /home/qc/psi4conda/share/psi4/basis/aug-cc-pvtz-dk.gbs func decontract

  ==> Pre-Iterations <==

   -------------------------------------------------------
    Irrep   Nso     Nmo     Nalpha   Nbeta   Ndocc  Nsocc
   -------------------------------------------------------
     A1        35      35       0       0       0       0
     A2        12      12       0       0       0       0
     B1        18      18       0       0       0       0
     B2        27      27       0       0       0       0
   -------------------------------------------------------
    Total      92      92       5       4       4       1
   -------------------------------------------------------

 OEINTS: Using relativistic (X2C) overlap, kinetic, and potential integrals.
         ------------------------------------------------------------
         Spin-Free X2C Integrals at the One-Electron Level (SFX2C-1e)
                 by Prakash Verma and Francesco A. Evangelista
         ------------------------------------------------------------

  ==> X2C Options <==

    Computational Basis: AUG-CC-PVTZ-DK
    X2C Basis: (AUG-CC-PVTZ-DK AUX)
    The X2C Hamiltonian will be computed in the X2C Basis

    Comparing only 35 out of 45 elements of H_Dirac

    Comparing only 18 out of 20 elements of H_Dirac

    Comparing only 27 out of 31 elements of H_Dirac

    The 1-norm of |H_X2C - H_Dirac| is: 6.481708558556

    WARNING: The X2C and Dirac Hamiltonians have substatially different eigenvalues!
             This is probably caused by the recontraction of the basis set.

  ==> Integral Setup <==

  Using in-core PK algorithm.
   Calculation information:
      Number of atoms:                   3
      Number of AO shells:              32
      Number of primitives:             52
      Number of atomic orbitals:       105
      Number of basis functions:        92

      Integral cutoff                 1.00e-20
      Number of threads:                 4

  Performing in-core PK
  Using 18305562 doubles for integral storage.
  We computed 171364 shell quartets total.
  Whereas there are 139656 unique shell quartets.
    22.70 percent of shell quartets recomputed by reordering.

  ==> DiskJK: Disk-Based J/K Matrices <==

    J tasked:                  Yes
    K tasked:                  Yes
    wK tasked:                  No
    Memory (MB):             22852
    Schwarz Cutoff:          1E-20

    OpenMP threads:              4

  Minimum eigenvalue in the overlap matrix is 4.2149581110E-04.
  Using Symmetric Orthogonalization.

  SCF Guess: Generalized Wolfsberg-Helmholtz.

  ==> Iterations <==

                        Total Energy        Delta E     RMS |[F,P]|

   @ROHF iter   1:   -69.38984258784468   -6.93898e+01   9.43614e-02 
   @ROHF iter   2:   -75.56493397453940   -6.17509e+00   1.20401e-02 DIIS
   @ROHF iter   3:   -75.68747043363126   -1.22536e-01   3.47075e-03 DIIS
   @ROHF iter   4:   -75.70090550128879   -1.34351e-02   1.33921e-03 DIIS
   @ROHF iter   5:   -75.70352517620978   -2.61967e-03   3.59875e-04 DIIS
   @ROHF iter   6:   -75.70374687656367   -2.21700e-04   6.52842e-05 DIIS
   @ROHF iter   7:   -75.70375735735715   -1.04808e-05   1.39086e-05 DIIS
   @ROHF iter   8:   -75.70375762739235   -2.70035e-07   1.76848e-06 DIIS
   @ROHF iter   9:   -75.70375763270621   -5.31386e-09   4.59116e-07 DIIS
   @ROHF iter  10:   -75.70375763298256   -2.76344e-10   7.83057e-08 DIIS
   @ROHF iter  11:   -75.70375763299167   -9.10916e-12   1.01150e-08 DIIS
   @ROHF iter  12:   -75.70375763299174   -7.10543e-14   1.47907e-09 DIIS
   @ROHF iter  13:   -75.70375763299177   -2.84217e-14   2.90570e-10 DIIS
   @ROHF iter  14:   -75.70375763299174    2.84217e-14   4.33975e-11 DIIS
   @ROHF iter  15:   -75.70375763299178   -4.26326e-14   7.53971e-12 DIIS
   @ROHF iter  16:   -75.70375763299175    2.84217e-14   9.08428e-13 DIIS

  ==> Post-Iterations <==

    Orbital Energies [Eh]
    ---------------------

    Doubly Occupied:                                                      

       1A1   -21.116652     2A1    -1.792156     1B2    -1.165342  
       3A1    -1.042869  

    Singly Occupied:                                                      

       1B1    -0.682649  

    Virtual:                                                              

       4A1    -0.182915     2B2    -0.117963     5A1    -0.060889  
       2B1    -0.057154     6A1    -0.043464     3B2    -0.029727  
       4B2     0.010612     7A1     0.017787     1A2     0.036373  
       3B1     0.069594     8A1     0.072058     5B2     0.162302  
       9A1     0.175607     6B2     0.191676     7B2     0.324331  
      10A1     0.347290    11A1     0.409805     2A2     0.423932  
       4B1     0.424080    12A1     0.511732     5B1     0.554361  
      13A1     0.587507     8B2     0.593802     6B1     0.609062  
       3A2     0.622473     9B2     0.661851    14A1     0.666816  
      15A1     0.726261    10B2     0.740528     7B1     0.746491  
      11B2     0.825460    16A1     0.855460     4A2     0.867975  
      12B2     0.970150     5A2     1.161267     8B1     1.217858  
      17A1     1.249693    13B2     1.398537    18A1     1.450081  
      14B2     1.565960    19A1     1.667550     9B1     1.831742  
       6A2     1.895937    20A1     1.942849    21A1     1.979440  
      10B1     2.001601    15B2     2.051904    22A1     2.112678  
      23A1     2.298681    11B1     2.310072    16B2     2.333665  
       7A2     2.445093    17B2     2.487409    18B2     3.137679  
      24A1     3.285768     8A2     3.568113    12B1     3.572117  
      19B2     3.755925    25A1     3.762623    13B1     3.880646  
       9A2     3.964496    14B1     3.964893    20B2     4.031761  
      26A1     4.087958    27A1     4.178927    21B2     4.240503  
      22B2     4.571469    10A2     4.600862    28A1     4.692247  
      23B2     4.817418    15B1     4.876629    29A1     5.189581  
      30A1     5.592763    24B2     6.074967    16B1     6.201677  
      31A1     6.280204    17B1     6.580960    11A2     6.679292  
      18B1     6.705659    32A1     6.772352    25B2     6.813035  
      12A2     6.855368    33A1     6.939063    26B2     7.281851  
      34A1     7.385076    27B2     8.002854    35A1    13.745445  

    Final Occupation by Irrep:
             A1    A2    B1    B2 
    DOCC [     3,    0,    0,    1 ]
    SOCC [     0,    0,    1,    0 ]

  Energy converged.

  @ROHF Final Energy:   -75.70375763299175

   => Energetics <=

    Nuclear Repulsion Energy =              8.6690284078929345
    One-Electron Energy =                -117.4072217869152865
    Two-Electron Energy =                  33.0344357460305957
    Total Energy =                        -75.7037576329917528



Properties will be evaluated at   0.000000,   0.000000,   0.000000 [a0]

Properties computed using the SCF density matrix

  Nuclear Dipole Moment: [e a0]
     X:     0.0000      Y:     0.0000      Z:    -0.9749

  Electronic Dipole Moment: [e a0]
     X:     0.0000      Y:     0.0000      Z:    -0.0057

  Dipole Moment: [e a0]
     X:     0.0000      Y:     0.0000      Z:    -0.9806     Total:     0.9806

  Dipole Moment: [D]
     X:     0.0000      Y:     0.0000      Z:    -2.4924     Total:     2.4924


*** tstop() called on node11 at Sat Nov  5 10:19:25 2022
Module time:
	user time   =       5.12 seconds =       0.09 minutes
	system time =       0.14 seconds =       0.00 minutes
	total time  =          2 seconds =       0.03 minutes
Total time:
	user time   =       5.12 seconds =       0.09 minutes
	system time =       0.14 seconds =       0.00 minutes
	total time  =          2 seconds =       0.03 minutes
   => Loading Basis Set <=

    Name: (AUG-CC-PVTZ-DK AUX)
    Role: DECON
    Keyword: BASIS_RELATIVISTIC
    atoms 1, 3 entry H          line    45 file /home/qc/psi4conda/share/psi4/basis/aug-cc-pvtz-dk.gbs func decontract
    atoms 2    entry O          line   324 file /home/qc/psi4conda/share/psi4/basis/aug-cc-pvtz-dk.gbs func decontract

 MINTS: Wrapper to libmints.
   by Justin Turney

   Calculation information:
      Number of threads:                 4
      Number of atoms:                   3
      Number of AO shells:              32
      Number of SO shells:              23
      Number of primitives:             52
      Number of atomic orbitals:       105
      Number of basis functions:        92

      Number of irreps:                  4
      Integral cutoff                 1.00e-20
      Number of functions per irrep: [  35   12   18   27 ]

 OEINTS: Using relativistic (X2C) overlap, kinetic, and potential integrals.
         ------------------------------------------------------------
         Spin-Free X2C Integrals at the One-Electron Level (SFX2C-1e)
                 by Prakash Verma and Francesco A. Evangelista
         ------------------------------------------------------------

  ==> X2C Options <==

    Computational Basis: AUG-CC-PVTZ-DK
    X2C Basis: (AUG-CC-PVTZ-DK AUX)
    The X2C Hamiltonian will be computed in the X2C Basis

    Comparing only 35 out of 45 elements of H_Dirac

    Comparing only 18 out of 20 elements of H_Dirac

    Comparing only 27 out of 31 elements of H_Dirac

    The 1-norm of |H_X2C - H_Dirac| is: 6.481708558556

    WARNING: The X2C and Dirac Hamiltonians have substatially different eigenvalues!
             This is probably caused by the recontraction of the basis set.

 OEINTS: Overlap, kinetic, potential, dipole, and quadrupole integrals
         stored in file 35.

      Computing two-electron integrals...done
      Computed 2240870 non-zero two-electron integrals.
        Stored in file 33.


*** tstart() called on node11
*** at Sat Nov  5 10:19:25 2022


	Wfn Parameters:
	--------------------
	Wavefunction         = CC3
	Number of irreps     = 4
	Number of MOs        = 92
	Number of active MOs = 91
	AO-Basis             = NONE
	Semicanonical        = true
	Reference            = ROHF changed to UHF for semicanonical orbitals
	Print Level          = 1

	IRREP	# MOs	# FZDC	# DOCC	# SOCC	# VIRT	# FZVR
	-----	-----	------	------	------	------	------
	 A1	   35	    1	    2	    0	    32	    0
	 A2	   12	    0	    0	    0	    12	    0
	 B1	   18	    0	    0	    1	    17	    0
	 B2	   27	    0	    1	    0	    26	    0
	Transforming integrals...
	IWL integrals will be deleted.
	(OO|OO)...
	Presorting SO-basis two-electron integrals.
	Sorting File: SO Ints (nn|nn) nbuckets = 1
	Transforming the one-electron integrals and constructing Fock matrices
	Starting AA/AB first half-transformation.
	Sorting AA/AB half-transformed integrals.
	Starting BB first half-transformation.
	Sorting BB half-transformed integrals.
	First half integral transformation complete.
	Starting AA second half-transformation.
	Starting AB second half-transformation.
	Starting BB second half-transformation.
	Two-electron integral transformation complete.
	(OO|OV)...
	Starting AA second half-transformation.
	Starting AB second half-transformation.
	Starting BB second half-transformation.
	Two-electron integral transformation complete.
	(OO|VV)...
	Starting AA second half-transformation.
	Starting AB second half-transformation.
	Starting BB second half-transformation.
	Two-electron integral transformation complete.
	(OV|OO)...
	Starting AA/AB first half-transformation.
	Sorting AA/AB half-transformed integrals.
	Starting BB first half-transformation.
	Sorting BB half-transformed integrals.
	First half integral transformation complete.
	Starting AA second half-transformation.
	Starting AB second half-transformation.
	Starting BB second half-transformation.
	Two-electron integral transformation complete.
	(OV|OV)...
	Starting AA second half-transformation.
	Starting AB second half-transformation.
	Starting BB second half-transformation.
	Two-electron integral transformation complete.
	(OV|VV)...
	Starting AA second half-transformation.
	Starting AB second half-transformation.
	Starting BB second half-transformation.
	Two-electron integral transformation complete.
	(VV|OO)...
	Starting AA/AB first half-transformation.
	Sorting AA/AB half-transformed integrals.
	Starting BB first half-transformation.
	Sorting BB half-transformed integrals.
	First half integral transformation complete.
	Starting AA second half-transformation.
	Starting AB second half-transformation.
	Starting BB second half-transformation.
	Two-electron integral transformation complete.
	(VV|OV)...
	Starting AA second half-transformation.
	Starting AB second half-transformation.
	Starting BB second half-transformation.
	Two-electron integral transformation complete.
	(VV|VV)...
	Starting AA second half-transformation.
	Starting AB second half-transformation.
	Starting BB second half-transformation.
	Two-electron integral transformation complete.
	Frozen core energy     =    -61.23844372965689

	Size of irrep 0 of <AB|CD> integrals:      1.047 (MW) /      8.372 (MB)
	Size of irrep 1 of <AB|CD> integrals:      0.682 (MW) /      5.458 (MB)
	Size of irrep 2 of <AB|CD> integrals:      0.733 (MW) /      5.862 (MB)
	Size of irrep 3 of <AB|CD> integrals:      1.073 (MW) /      8.586 (MB)
	Total:                                     3.535 (MW) /     28.279 (MB)

	Size of irrep 0 of <ab|cd> integrals:      1.082 (MW) /      8.653 (MB)
	Size of irrep 1 of <ab|cd> integrals:      0.726 (MW) /      5.807 (MB)
	Size of irrep 2 of <ab|cd> integrals:      0.789 (MW) /      6.308 (MB)
	Size of irrep 3 of <ab|cd> integrals:      1.098 (MW) /      8.786 (MB)
	Total:                                     3.694 (MW) /     29.555 (MB)

	Size of irrep 0 of <Ab|Cd> integrals:      4.622 (MW) /     36.980 (MB)
	Size of irrep 1 of <Ab|Cd> integrals:      2.816 (MW) /     22.525 (MB)
	Size of irrep 2 of <Ab|Cd> integrals:      3.042 (MW) /     24.332 (MB)
	Size of irrep 3 of <Ab|Cd> integrals:      4.343 (MW) /     34.744 (MB)
	Total:                                    14.823 (MW) /    118.582 (MB)

	Size of irrep 0 of <IA|BC> integrals:      0.228 (MW) /      1.826 (MB)
	Size of irrep 1 of <IA|BC> integrals:      0.111 (MW) /      0.885 (MB)
	Size of irrep 2 of <IA|BC> integrals:      0.134 (MW) /      1.068 (MB)
	Size of irrep 3 of <IA|BC> integrals:      0.199 (MW) /      1.591 (MB)
	Total:                                     0.671 (MW) /      5.371 (MB)

	Size of irrep 0 of <ia|bc> integrals:      0.195 (MW) /      1.561 (MB)
	Size of irrep 1 of <ia|bc> integrals:      0.072 (MW) /      0.573 (MB)
	Size of irrep 2 of <ia|bc> integrals:      0.085 (MW) /      0.682 (MB)
	Size of irrep 3 of <ia|bc> integrals:      0.176 (MW) /      1.409 (MB)
	Total:                                     0.528 (MW) /      4.224 (MB)

	Size of irrep 0 of <Ia|Bc> integrals:      0.232 (MW) /      1.858 (MB)
	Size of irrep 1 of <Ia|Bc> integrals:      0.114 (MW) /      0.913 (MB)
	Size of irrep 2 of <Ia|Bc> integrals:      0.140 (MW) /      1.116 (MB)
	Size of irrep 3 of <Ia|Bc> integrals:      0.200 (MW) /      1.601 (MB)
	Total:                                     0.686 (MW) /      5.487 (MB)

	Size of irrep 0 of <iA|bC> integrals:      0.194 (MW) /      1.548 (MB)
	Size of irrep 1 of <iA|bC> integrals:      0.069 (MW) /      0.550 (MB)
	Size of irrep 2 of <iA|bC> integrals:      0.080 (MW) /      0.642 (MB)
	Size of irrep 3 of <iA|bC> integrals:      0.175 (MW) /      1.400 (MB)
	Total:                                     0.518 (MW) /      4.141 (MB)

	Size of irrep 0 of tIjAb amplitudes:       0.011 (MW) /      0.086 (MB)
	Size of irrep 1 of tIjAb amplitudes:       0.002 (MW) /      0.013 (MB)
	Size of irrep 2 of tIjAb amplitudes:       0.003 (MW) /      0.028 (MB)
	Size of irrep 3 of tIjAb amplitudes:       0.008 (MW) /      0.067 (MB)
	Total:                                     0.024 (MW) /      0.194 (MB)

	Nuclear Rep. energy          =      8.66902840789293
	SCF energy                   =    -75.70375763299175
	One-electron energy          =    -37.16367413267409
	Two-electron (AA) energy     =      3.69091814992760
	Two-electron (BB) energy     =      1.74724247738463
	Two-electron (AB) energy     =      8.59117119413415
	Two-electron energy          =     14.02933182144639
	Reference energy             =    -75.70375763299165

*** tstop() called on node11 at Sat Nov  5 10:19:28 2022
Module time:
	user time   =       2.12 seconds =       0.04 minutes
	system time =       0.93 seconds =       0.02 minutes
	total time  =          3 seconds =       0.05 minutes
Total time:
	user time   =       8.98 seconds =       0.15 minutes
	system time =       1.16 seconds =       0.02 minutes
	total time  =          5 seconds =       0.08 minutes

*** tstart() called on node11
*** at Sat Nov  5 10:19:28 2022

            **************************
            *                        *
            *        CCENERGY        *
            *                        *
            **************************

    Nuclear Rep. energy (wfn)     =    8.669028407892934
    SCF energy          (wfn)     =  -75.703757632991753
    Reference energy    (file100) =  -75.703757632991653

    Input parameters:
    -----------------
    Wave function   =     CC3
    Reference wfn   =     ROHF changed to UHF for Semicanonical Orbitals
    Brueckner       =     No
    Memory (Mbytes) =     31950.0
    Maxiter         =    500
    R_Convergence   =     1.0e-12
    E_Convergence   =     1.0e-06
    Restart         =     Yes
    DIIS            =     Yes
    AO Basis        =     NONE
    ABCD            =     NEW
    Cache Level     =     0
    Cache Type      =     LRU
    Print Level     =     1
    Num. of threads =     4
    # Amps to Print =     10
    Print MP2 Amps? =     No
    Analyze T2 Amps =     No
    Print Pair Ener =     No
    Local CC        =     No
    T3 Ws incore    =     No
    SCS-MP2         =     False
    SCSN-MP2        =     False
    SCS-CCSD        =     False

MP2 correlation energy -0.2079517668570725
                Solving CC Amplitude Equations
                ------------------------------
  Iter             Energy              RMS        T1Diag      D1Diag    New D1Diag    D2Diag
  ----     ---------------------    ---------   ----------  ----------  ----------   --------
     0        -0.208010652556800    0.000e+00    0.013548    0.000000    0.000000    0.000000
     1        -0.222960948693087    3.389e-02    0.016791    0.000000    0.000000    0.000000
     2        -0.228073235894867    1.247e-02    0.018601    0.000000    0.000000    0.000000
     3        -0.228389607083805    4.278e-03    0.019216    0.000000    0.000000    0.000000
     4        -0.228401639179145    1.875e-03    0.019300    0.000000    0.000000    0.000000
     5        -0.228441051991455    7.879e-04    0.019274    0.000000    0.000000    0.000000
     6        -0.228444844895955    2.657e-04    0.019237    0.000000    0.000000    0.000000
     7        -0.228447404584459    1.026e-04    0.019223    0.000000    0.000000    0.000000
     8        -0.228447256311171    3.556e-05    0.019221    0.000000    0.000000    0.000000
     9        -0.228447213014669    1.189e-05    0.019221    0.000000    0.000000    0.000000
    10        -0.228447348796675    4.453e-06    0.019222    0.000000    0.000000    0.000000
    11        -0.228447278103696    1.537e-06    0.019222    0.000000    0.000000    0.000000
    12        -0.228447258789679    4.678e-07    0.019222    0.000000    0.000000    0.000000
    13        -0.228447246643308    1.299e-07    0.019222    0.000000    0.000000    0.000000
    14        -0.228447246276989    3.871e-08    0.019222    0.000000    0.000000    0.000000
    15        -0.228447246244335    1.466e-08    0.019222    0.000000    0.000000    0.000000
    16        -0.228447246164345    6.675e-09    0.019222    0.000000    0.000000    0.000000
    17        -0.228447246045726    3.071e-09    0.019222    0.000000    0.000000    0.000000
    18        -0.228447245965946    1.296e-09    0.019222    0.000000    0.000000    0.000000
    19        -0.228447245953154    5.236e-10    0.019222    0.000000    0.000000    0.000000
    20        -0.228447245954303    1.837e-10    0.019222    0.000000    0.000000    0.000000
    21        -0.228447245953408    6.377e-11    0.019222    0.000000    0.000000    0.000000
    22        -0.228447245953558    2.244e-11    0.019222    0.000000    0.000000    0.000000
    23        -0.228447245953540    6.816e-12    0.019222    0.000000    0.000000    0.000000
    24        -0.228447245953590    2.269e-12    0.019222    0.000000    0.000000    0.000000
    25        -0.228447245953597    6.498e-13    0.019222    0.000000    0.000000    0.000000

    Iterations converged.


    Largest TIA Amplitudes:
              0  14        -0.0099650828
              0   0        -0.0092305963
              0   6         0.0082821409
              0   5        -0.0078586170
              0  15        -0.0078274892
              0   7         0.0077317133
              0  17         0.0075770158
              0   2         0.0072338395
              2  44         0.0063693153
              1  17        -0.0062485324

    Largest Tia Amplitudes:
              1   1         0.0110449937
              2  63         0.0109513078
              0   0         0.0102328140
              2  62         0.0099284766
              0   2         0.0098192094
              1   0         0.0089952661
              2  66         0.0088880622
              1   4        -0.0081445381
              0   7        -0.0081399252
              0  17        -0.0080656979

    Largest TIJAB Amplitudes:
      2   1  47   9         0.0081432837
      3   2  33   6         0.0079135011
      3   2  65  47        -0.0078330866
      2   1  51  17         0.0077297807
      2   1  48   9         0.0071268199
      3   2  61  47        -0.0070177307
      2   1  46   7        -0.0069729835
      3   2  62  47        -0.0069575365
      3   1  65   9         0.0069562369
      3   1  61   9         0.0066985643

    Largest Tijab Amplitudes:
      1   0  47  44         0.0081312818
      2   0  44  33         0.0078214656
      1   0  52  44         0.0075069368
      2   1  63   6         0.0072496787
      2   1  66   9         0.0070393676
      2   1  66   6         0.0068678886
      2   1  62   9         0.0065292885
      2   1  67   6         0.0062861926
      2   1  66   1        -0.0061241332
      2   0  44  36         0.0059759318

    Largest TIjAb Amplitudes:
      3   2  65  66        -0.0193706750
      1   1   9   9        -0.0178151922
      3   2  62  66        -0.0177443515
      3   2  65  63        -0.0176558149
      2   0   0  44        -0.0171267106
      3   2  62  63        -0.0166456668
      3   2  61  66        -0.0162038242
      2   0  14  44        -0.0158284783
      2   0   6  44         0.0157754664
      1   0  51  44         0.0151591928

    SCF energy       (wfn)                    =  -75.703757632991753
    Reference energy (file100)                =  -75.703757632991653

    Opposite-spin MP2 correlation energy      =   -0.158755810822868
    Same-spin MP2 correlation energy          =   -0.045584305112096
    MP2 correlation energy                    =   -0.207951766857072
      * MP2 total energy                      =  -75.911709399848732
    CC3 correlation energy                    =   -0.228447245953597
      * CC3 total energy                      =  -75.932204878945257


*** tstop() called on node11 at Sat Nov  5 10:21:29 2022
Module time:
	user time   =     445.65 seconds =       7.43 minutes
	system time =      32.38 seconds =       0.54 minutes
	total time  =        121 seconds =       2.02 minutes
Total time:
	user time   =     454.63 seconds =       7.58 minutes
	system time =      33.54 seconds =       0.56 minutes
	total time  =        126 seconds =       2.10 minutes

*** tstart() called on node11
*** at Sat Nov  5 10:21:29 2022


			**************************
			*                        *
			*         CCHBAR         *
			*                        *
			**************************

Dots of (HeT1)c in names "CC3 Wxxx" in CC3_HET1 
Wamef terms
	<WAMEF|WAMEF> =   13.2770127422
	<Wamef|Wamef> =   10.8441212609
	<WAmEf|WAmEf> =    9.2984285531
	<WaMeF|WaMeF> =   12.6299904341
Wmnie terms
	<WMNIE (M>N,IE)|WMNIE> =    0.7440396926
	<Wmnie (m>n,ie)|Wmnie> =    0.3273760590
	<WMnIe (Mn,Ie)|WMnIe> =    0.7244514624
	<WmNiE (mN,iE)|WmNiE> =    0.6113857076
	<WMNIE(M>N,EI)|WMNIE(M>N,EI)> =    0.7440396926
	<Wmnie(m>n,ei)|Wmnie(m>n,ei)> =    0.3273760590
	<WMnIe(Mn,eI)|WMnIe(Mn,eI)> =    0.7244514624
	<WmNiE(mN,Ei)|WmNiE(mN,Ei)> =    0.6113857076
Doing Wmnij terms.
	<WMNIJ (M>N,I>J)|WMNIJ> =    9.1800568383
	<Wmnij (m>n,i>j)|Wmnij> =    4.0181839950
	<WMnIj (Mn,Ij)|WMnIj> =    6.3493114565
Doing Wmbij terms.
	<WMBIJ (MB,I>J)|WMBIJ> =    0.7495444799
	<WMBIJ (I>J,MB)|WMBIJ> =    0.7495444799
	<Wmbij (mb,i>j)|Wmbij> =    0.3333241917
	<Wmbij (i>j,mb)|Wmbij> =    0.3333241917
	<WMbIj (Mb,Ij)|WMbIj> =    0.7280302792
	<WMbIj (Ij,Mb)|WMbIj> =    0.7280302792
	<WmBiJ (mB,iJ)|WmBiJ> =    0.6148312520
	<WmBiJ (iJ,mB)|WmBiJ> =    0.6148312520
Doing Wmbej terms.
	<WMBEJ (all ME,JB)|WMBEJ> =   81.4216944084
	<Wmbej|Wmbej> =   61.5912700962
	<WMbEj|WMbEj> =    1.0259088864
	<WmBeJ|WmBeJ> =    1.0356394216
	<WMbeJ|WMbeJ> =   94.3901277931
	<WmBEj|WmBEj> =   67.5406958094
Doing Wabei terms.
	<WABEI (IE,B>A) |WABEI> =   13.3325211035
	<Wabei (ie,b>a)|Wabei> =   10.9472037709
	<WAbEi (iE,bA)|WAbEi> =    9.3771807875
	<WAbEi (iE,Ba)|WAbEi> =   12.6665952036

*** tstop() called on node11 at Sat Nov  5 10:21:30 2022
Module time:
	user time   =       3.32 seconds =       0.06 minutes
	system time =       0.55 seconds =       0.01 minutes
	total time  =          1 seconds =       0.02 minutes
Total time:
	user time   =     457.95 seconds =       7.63 minutes
	system time =      34.09 seconds =       0.57 minutes
	total time  =        127 seconds =       2.12 minutes

*** tstart() called on node11
*** at Sat Nov  5 10:21:30 2022


	**********************************************************
	*  CCEOM: An Equation of Motion Coupled Cluster Program  *
	**********************************************************

	Nuclear Rep. energy (wfn)     =    8.669028407892934
	SCF energy          (wfn)     =  -75.703757632991753
	Reference energy    (file100) =  -75.703757632991653
	CC3 energy          (file100) =   -0.228447245953597

	Input parameters:
	-----------------
	Reference wfn   = ROHF changed to UHF for Semicanonical Orbitals
	Reference EOM wfn=     UHF
	Memory (Mbytes) =  31950.0
	ABCD            =     NEW
	Cache Level     =    0
	Cache Type      =     LRU
	T3 Ws incore  =      No
	Num. of threads =     4
	Local CC        =     No


	CCEOM parameters:
	-----------------
	States sought per irrep     = A1 0, A2 0, B1 1, B2 0,
	Max. number of iterations   =   500
	Vectors stored per root     =    12
	Print HbarSS iterations?    =     0
	Excitation range for HBarSS =     2
	Eigenvalue tolerance        = 1.0e-06
	Eigenvalue toleranceSS      = 1.0e-06
	Residual vector tolerance   = 1.0e-08
	Residual vector toleranceSS = 1.0e-06
	Complex tolerance           = 1.0e-12
	Root for properties         =     1
	Sym of state for properties =     A1
	Guess vectors taken from    = SINGLES
	Restart EOM CC3             = NO
	Collapse with last vector   = YES


Symmetry of ground state: B1
Symmetry of excited state: B1
Symmetry of right eigenvector: A1
Obtaining initial guess from singles-singles block of Hbar...Done.

Iter=1    L=1     Root    EOM Energy     Delta E   Res. Norm    Conv?
                     1   0.5679393287   5.68e-01    5.12e-01      N
Iter=2    L=2     Root    EOM Energy     Delta E   Res. Norm    Conv?
                     1   0.4774027468  -9.05e-02    9.77e-02      N
Iter=3    L=3     Root    EOM Energy     Delta E   Res. Norm    Conv?
                     1   0.4710655686  -6.34e-03    6.49e-02      N
Iter=4    L=4     Root    EOM Energy     Delta E   Res. Norm    Conv?
                     1   0.4677539969  -3.31e-03    4.68e-02      N
Iter=5    L=5     Root    EOM Energy     Delta E   Res. Norm    Conv?
                     1   0.4665128230  -1.24e-03    2.73e-02      N
Iter=6    L=6     Root    EOM Energy     Delta E   Res. Norm    Conv?
                     1   0.4660722507  -4.41e-04    1.36e-02      N
Iter=7    L=7     Root    EOM Energy     Delta E   Res. Norm    Conv?
                     1   0.4659319224  -1.40e-04    8.88e-03      N
Iter=8    L=8     Root    EOM Energy     Delta E   Res. Norm    Conv?
                     1   0.4658536685  -7.83e-05    6.30e-03      N
Iter=9    L=9     Root    EOM Energy     Delta E   Res. Norm    Conv?
                     1   0.4658176344  -3.60e-05    3.78e-03      N
Iter=10   L=10    Root    EOM Energy     Delta E   Res. Norm    Conv?
                     1   0.4658069119  -1.07e-05    2.82e-03      N
Iter=11   L=11    Root    EOM Energy     Delta E   Res. Norm    Conv?
                     1   0.4657977520  -9.16e-06    2.30e-03      N
Iter=12   L=12    Root    EOM Energy     Delta E   Res. Norm    Conv?
                     1   0.4657945459  -3.21e-06    1.37e-03      N
Iter=13   L=2     Root    EOM Energy     Delta E   Res. Norm    Conv?
                     1   0.4657945459  -3.33e-16    1.37e-03      N
Iter=14   L=3     Root    EOM Energy     Delta E   Res. Norm    Conv?
                     1   0.4657936544  -8.92e-07    6.68e-04      N
Iter=15   L=4     Root    EOM Energy     Delta E   Res. Norm    Conv?
                     1   0.4657938906   2.36e-07    3.97e-04      N
Iter=16   L=5     Root    EOM Energy     Delta E   Res. Norm    Conv?
                     1   0.4657931545  -7.36e-07    2.29e-04      N
Iter=17   L=6     Root    EOM Energy     Delta E   Res. Norm    Conv?
                     1   0.4657927433  -4.11e-07    9.85e-05      N
Iter=18   L=7     Root    EOM Energy     Delta E   Res. Norm    Conv?
                     1   0.4657928359   9.26e-08    3.82e-05      N
Iter=19   L=8     Root    EOM Energy     Delta E   Res. Norm    Conv?
                     1   0.4657927850  -5.09e-08    1.50e-05      N
Iter=20   L=9     Root    EOM Energy     Delta E   Res. Norm    Conv?
                     1   0.4657927800  -5.01e-09    6.56e-06      N
Iter=21   L=10    Root    EOM Energy     Delta E   Res. Norm    Conv?
                     1   0.4657927764  -3.59e-09    2.69e-06      N
Iter=22   L=11    Root    EOM Energy     Delta E   Res. Norm    Conv?
                     1   0.4657927790   2.58e-09    1.03e-06      N
Iter=23   L=12    Root    EOM Energy     Delta E   Res. Norm    Conv?
                     1   0.4657927830   4.00e-09    4.71e-07      N
Iter=24   L=2     Root    EOM Energy     Delta E   Res. Norm    Conv?
                     1   0.4657927830  -2.41e-14    4.71e-07      N
Iter=25   L=3     Root    EOM Energy     Delta E   Res. Norm    Conv?
                     1   0.4657927837   7.50e-10    3.39e-07      N
Iter=26   L=4     Root    EOM Energy     Delta E   Res. Norm    Conv?
                     1   0.4657927842   5.04e-10    2.39e-07      N
Iter=27   L=5     Root    EOM Energy     Delta E   Res. Norm    Conv?
                     1   0.4657927849   7.08e-10    1.44e-07      N
Iter=28   L=6     Root    EOM Energy     Delta E   Res. Norm    Conv?
                     1   0.4657927851   1.89e-10    8.71e-08      N
Iter=29   L=7     Root    EOM Energy     Delta E   Res. Norm    Conv?
                     1   0.4657927853   2.03e-10    5.74e-08      N
Iter=30   L=8     Root    EOM Energy     Delta E   Res. Norm    Conv?
                     1   0.4657927853   1.19e-11    3.92e-08      N
Iter=31   L=9     Root    EOM Energy     Delta E   Res. Norm    Conv?
                     1   0.4657927853  -7.58e-12    2.43e-08      N
Iter=32   L=10    Root    EOM Energy     Delta E   Res. Norm    Conv?
                     1   0.4657927853   4.30e-12    1.46e-08      N
Iter=33   L=11    Root    EOM Energy     Delta E   Res. Norm    Conv?
                     1   0.4657927853  -2.91e-11    9.63e-09      Y
Completed EOM_CCSD
Collapsing to only 1 vector(s).
Copying root 1 to CC3_MISC file.
Setting initial CC3 eigenvalue to    0.4657927853
Iter=1    L=1     Root    EOM Energy     Delta E   Res. Norm    Conv?
                     1   0.4603981984  -5.39e-03    4.35e-02      N
Iter=2    L=2     Root    EOM Energy     Delta E   Res. Norm    Conv?
                     1   0.4588409676  -1.56e-03    2.71e-02      N
Iter=3    L=3     Root    EOM Energy     Delta E   Res. Norm    Conv?
                     1   0.4573852175  -1.46e-03    4.26e-02      N
Iter=4    L=4     Root    EOM Energy     Delta E   Res. Norm    Conv?
                     1   0.4555686505  -1.82e-03    2.51e-02      N
Iter=5    L=5     Root    EOM Energy     Delta E   Res. Norm    Conv?
                     1   0.4551746857  -3.94e-04    1.29e-02      N
Iter=6    L=6     Root    EOM Energy     Delta E   Res. Norm    Conv?
                     1   0.4550512650  -1.23e-04    1.20e-02      N
Iter=7    L=7     Root    EOM Energy     Delta E   Res. Norm    Conv?
                     1   0.4549131427  -1.38e-04    9.09e-03      N
Iter=8    L=8     Root    EOM Energy     Delta E   Res. Norm    Conv?
                     1   0.4548337181  -7.94e-05    5.19e-03      N
Iter=9    L=9     Root    EOM Energy     Delta E   Res. Norm    Conv?
                     1   0.4548285155  -5.20e-06    2.32e-03      N
Iter=10   L=10    Root    EOM Energy     Delta E   Res. Norm    Conv?
                     1   0.4548276450  -8.70e-07    1.15e-03      N
Collapsing to 2 vector(s).
Change in CC3 energy from last iterated value   -0.0109651403
Iter=11   L=2     Root    EOM Energy     Delta E   Res. Norm    Conv?
                     1   0.4548555708   2.79e-05    1.15e-03      N
Iter=12   L=3     Root    EOM Energy     Delta E   Res. Norm    Conv?
                     1   0.4548536142  -1.96e-06    7.52e-04      N
Iter=13   L=4     Root    EOM Energy     Delta E   Res. Norm    Conv?
                     1   0.4548534087  -2.06e-07    4.83e-04      N
Iter=14   L=5     Root    EOM Energy     Delta E   Res. Norm    Conv?
                     1   0.4548538290   4.20e-07    2.26e-04      N
Iter=15   L=6     Root    EOM Energy     Delta E   Res. Norm    Conv?
                     1   0.4548531772  -6.52e-07    1.19e-04      N
Iter=16   L=7     Root    EOM Energy     Delta E   Res. Norm    Conv?
                     1   0.4548531445  -3.27e-08    7.39e-05      N
Iter=17   L=8     Root    EOM Energy     Delta E   Res. Norm    Conv?
                     1   0.4548534450   3.00e-07    5.30e-05      N
Iter=18   L=9     Root    EOM Energy     Delta E   Res. Norm    Conv?
                     1   0.4548535137   6.87e-08    4.47e-05      N
Iter=19   L=10    Root    EOM Energy     Delta E   Res. Norm    Conv?
                     1   0.4548534939  -1.99e-08    3.28e-05      N
Collapsing to 2 vector(s).
Change in CC3 energy from last iterated value    0.0000258488
Iter=20   L=2     Root    EOM Energy     Delta E   Res. Norm    Conv?
                     1   0.4548533962  -9.76e-08    3.23e-05      N
Iter=21   L=3     Root    EOM Energy     Delta E   Res. Norm    Conv?
                     1   0.4548534276   3.14e-08    1.78e-05      N
Iter=22   L=4     Root    EOM Energy     Delta E   Res. Norm    Conv?
                     1   0.4548534449   1.73e-08    9.53e-06      N
Iter=23   L=5     Root    EOM Energy     Delta E   Res. Norm    Conv?
                     1   0.4548534562   1.12e-08    4.34e-06      N
Iter=24   L=6     Root    EOM Energy     Delta E   Res. Norm    Conv?
                     1   0.4548534582   2.05e-09    1.81e-06      N
Iter=25   L=7     Root    EOM Energy     Delta E   Res. Norm    Conv?
                     1   0.4548534582  -5.56e-11    9.05e-07      N
Iter=26   L=8     Root    EOM Energy     Delta E   Res. Norm    Conv?
                     1   0.4548534569  -1.29e-09    4.38e-07      N
Iter=27   L=9     Root    EOM Energy     Delta E   Res. Norm    Conv?
                     1   0.4548534569  -1.77e-11    2.17e-07      N
Iter=28   L=10    Root    EOM Energy     Delta E   Res. Norm    Conv?
                     1   0.4548534569   1.50e-11    1.42e-07      N
Collapsing to 2 vector(s).
Change in CC3 energy from last iterated value   -0.0000000370
Iter=29   L=2     Root    EOM Energy     Delta E   Res. Norm    Conv?
                     1   0.4548534570   1.40e-10    1.43e-07      N
Iter=30   L=3     Root    EOM Energy     Delta E   Res. Norm    Conv?
                     1   0.4548534570  -4.92e-11    9.33e-08      N
Iter=31   L=4     Root    EOM Energy     Delta E   Res. Norm    Conv?
                     1   0.4548534570  -1.72e-12    5.44e-08      N
Iter=32   L=5     Root    EOM Energy     Delta E   Res. Norm    Conv?
                     1   0.4548534570   2.18e-11    2.50e-08      N
Iter=33   L=6     Root    EOM Energy     Delta E   Res. Norm    Conv?
                     1   0.4548534570   4.18e-12    1.15e-08      N
Iter=34   L=7     Root    EOM Energy     Delta E   Res. Norm    Conv?
                     1   0.4548534570   8.64e-12    5.55e-09      Y
Collapsing to only 1 vector(s).
Change in CC3 energy from last iterated value    0.0000000001

Procedure converged for 1 root(s).
Energy written to CC_INFO:Etot  -75.4773514220
States per irrep written to CC_INFO.
<R|R> =   0.9999999999999999
EOM CC3 R0 for root 0 =  -0.00436704746

Final Energetic Summary for Converged Roots of Irrep B1
                     Excitation Energy              Total Energy
                (eV)     (cm^-1)     (au)             (au)
EOM State 1     12.377    99828.8   0.4548534570   -75.477351421955

Largest components of excited wave function #1:
 RIA (libdpd indices) : (cscf notation)
         1 >   0      :       3a1 >    4a1 :   -0.4957529003
         1 >   2      :       3a1 >    6a1 :    0.1653983610
         1 >   5      :       3a1 >    9a1 :   -0.1354923042
         1 >   1      :       3a1 >    5a1 :   -0.1350821898
         1 >   4      :       3a1 >    8a1 :    0.0517275226
 Ria (libdpd indices) : (cscf notation)
         1 >   0      :       3a1 >    4a1 :    0.5823349012
         1 >   2      :       3a1 >    6a1 :    0.2256364675
         1 >   5      :       3a1 >    9a1 :    0.1697074450
         1 >   1      :       3a1 >    5a1 :    0.1463164680
         1 >   4      :       3a1 >    8a1 :   -0.0591640043
 RIjAb (libdpd indices)     : (cscf notation)
        0   1 >   0   0     :    1b1    3a1 >    4a1    1b1 :    0.3348402931
        0   1 >   2   0     :    1b1    3a1 >    6a1    1b1 :   -0.1118582030
        0   1 >   0   1     :    1b1    3a1 >    4a1    2b1 :    0.0969343784
        0   1 >   5   0     :    1b1    3a1 >    9a1    1b1 :    0.0920531060
        0   1 >   1   0     :    1b1    3a1 >    5a1    1b1 :    0.0891453076
 RIJAB (libdpd indices)     : (cscf notation)
        0   1 >   0   0     :    1b1    3a1 >    2b1    4a1 :    0.0193992842
        0   1 >   3   0     :    1b1    3a1 >    5b1    4a1 :    0.0193305951
        0   1 >   4   0     :    1b2    3a1 >    6b2    4a1 :    0.0188433529
        0   1 >   1   0     :    1b2    3a1 >    3b2    4a1 :    0.0182847483
        0   1 >   0   0     :    1b2    3a1 >    2b2    4a1 :    0.0175214782
 Rijab (libdpd indices)     : (cscf notation)
        0   1 >   4   0     :    1b2    3a1 >    6b2    4a1 :   -0.0237012733
        0   1 >   1   0     :    1b2    3a1 >    3b2    4a1 :   -0.0232684451
        0   1 >   0   0     :    1b2    3a1 >    2b2    4a1 :   -0.0209965176
        0   1 >   8   0     :    1b2    3a1 >   10b2    4a1 :   -0.0130708788
        1   0 >   5   0     :    3a1    2a1 >    6b1    1b1 :   -0.0094669792

	Putting into environment energy for root of R irrep 1 and root 1.
	Putting into environment CURRENT ENERGY:              -75.4773514220

	Total # of sigma evaluations: 68

*** tstop() called on node11 at Sat Nov  5 10:28:59 2022
Module time:
	user time   =    1695.59 seconds =      28.26 minutes
	system time =     100.90 seconds =       1.68 minutes
	total time  =        449 seconds =       7.48 minutes
Total time:
	user time   =    2153.55 seconds =      35.89 minutes
	system time =     134.99 seconds =       2.25 minutes
	total time  =        576 seconds =       9.60 minutes

    Psi4 stopped on: Saturday, 05 November 2022 10:28AM
    Psi4 wall time for execution: 0:09:36.27

*** Psi4 exiting successfully. Buy a developer a beer!
