
Host: node10

Timers On : Sat Nov  5 10:19:26 2022
Timers Off: Sat Nov  5 10:27:14 2022

Wall Time:      468.57 seconds

Total PK formation time     :      3.250u      0.083s      0.512w      1 calls
HF: Form H                  :      0.017u      0.000s      0.005w      1 calls
HF: Form S/X                :      0.000u      0.000s      0.001w      1 calls
HF: Guess                   :      0.000u      0.000s      0.001w      1 calls
HF: Form G                  :      3.183u      0.050s      0.477w     16 calls
JK: D                       :      0.050u      0.000s      0.000w     16 calls
JK: USO2AO                  :      0.067u      0.000s      0.007w     16 calls
JK: JK                      :      3.033u      0.050s      0.461w     16 calls
PK computes JK              :      3.033u      0.050s      0.461w     16 calls
JK: AO2USO                  :      0.033u      0.000s      0.008w     16 calls
HF: Form F                  :      0.000u      0.000s      0.002w     16 calls
HF: DIIS                    :      0.050u      0.000s      0.008w     16 calls
DIISManager::add_entry      :      0.000u      0.000s      0.002w     16 calls
DIISManager::extrapolate    :      0.050u      0.000s      0.004w     15 calls
bMatrix setup               :      0.033u      0.000s      0.002w     15 calls
bMatrix pseudoinverse       :      0.017u      0.000s      0.001w     15 calls
New vector                  :      0.000u      0.000s      0.001w     15 calls
HF: Form C                  :      0.050u      0.000s      0.008w     16 calls
HF: Form D                  :      0.000u      0.000s      0.000w     16 calls
CCEOM                       :   2250.000u    129.617s    357.231w      1 calls
HBAR_EXTRA                  :      0.083u      0.017s      0.015w      1 calls
INIT GUESS                  :      0.400u      0.033s      0.133w      1 calls
SIGMA ALL                   :   2242.817u    128.517s    355.931w     68 calls
sigmaSS                     :      0.200u      0.000s      0.041w     68 calls
sigmaSD                     :      2.683u      0.333s      0.447w     68 calls
FSD                         :      0.283u      0.067s      0.055w     68 calls
WamefSD                     :      2.050u      0.267s      0.357w     68 calls
WmnieSD                     :      0.333u      0.000s      0.035w     68 calls
sigmaDS                     :     12.567u      1.083s      2.051w     68 calls
WmaijDS                     :      0.917u      0.017s      0.151w     68 calls
WabejDS                     :      3.500u      0.433s      0.576w     68 calls
WnmjeDS                     :      1.383u      0.083s      0.250w     68 calls
WbmfeDS                     :      6.767u      0.550s      1.073w     68 calls
sigmaDD                     :     55.300u      8.683s      9.611w     68 calls
FDD                         :      2.467u      0.217s      0.416w     68 calls
WmnijDD                     :      0.133u      0.017s      0.019w     68 calls
WabefDD                     :     45.183u      7.700s      7.946w     68 calls
WmbejDD                     :      3.383u      0.467s      0.574w     68 calls
WmnefDD                     :      4.133u      0.283s      0.655w     68 calls
cc3_HC1                     :     86.617u     14.600s     15.184w     37 calls
cc3_HC1ET1                  :    110.617u     18.317s     19.458w     37 calls
sigmaCC3                    :   1974.817u     85.500s    309.137w     37 calls
BUILD G                     :      1.400u      0.067s      0.233w     67 calls
CALC RES                    :      2.000u      0.533s      0.358w     67 calls
RESTART                     :      0.467u      0.117s      0.090w      7 calls

-----------------------------------------------------------
Total PK formation time     :      3.250u      0.083s      0.512w      1 calls
HF: Form H                  :      0.017u      0.000s      0.005w      1 calls
HF: Form S/X                :      0.000u      0.000s      0.001w      1 calls
HF: Guess                   :      0.000u      0.000s      0.001w      1 calls
HF: Form G                  :      3.183u      0.050s      0.477w     16 calls
| JK: D                     :      0.050u      0.000s      0.000w     16 calls
| JK: USO2AO                :      0.067u      0.000s      0.007w     16 calls
| JK: JK                    :      3.033u      0.050s      0.461w     16 calls
| | PK computes JK          :      3.033u      0.050s      0.461w     16 calls
| JK: AO2USO                :      0.033u      0.000s      0.008w     16 calls
HF: Form F                  :      0.000u      0.000s      0.002w     16 calls
HF: DIIS                    :      0.050u      0.000s      0.008w     16 calls
| DIISManager::add_entry    :      0.000u      0.000s      0.002w     16 calls
| DIISManager::extrapolate  :      0.050u      0.000s      0.004w     15 calls
| | bMatrix setup           :      0.033u      0.000s      0.002w     15 calls
| | bMatrix pseudoinverse   :      0.017u      0.000s      0.001w     15 calls
| | New vector              :      0.000u      0.000s      0.001w     15 calls
HF: Form C                  :      0.050u      0.000s      0.008w     16 calls
HF: Form D                  :      0.000u      0.000s      0.000w     16 calls
CCEOM                       :   2250.000u    129.617s    357.231w      1 calls
| HBAR_EXTRA                :      0.083u      0.017s      0.015w      1 calls
| INIT GUESS                :      0.400u      0.033s      0.133w      1 calls
| SIGMA ALL                 :   2242.817u    128.517s    355.931w     68 calls
| | sigmaSS                 :      0.200u      0.000s      0.041w     68 calls
| | sigmaSD                 :      2.683u      0.333s      0.447w     68 calls
| | | FSD                   :      0.283u      0.067s      0.055w     68 calls
| | | WamefSD               :      2.050u      0.267s      0.357w     68 calls
| | | WmnieSD               :      0.333u      0.000s      0.035w     68 calls
| | sigmaDS                 :     12.567u      1.083s      2.051w     68 calls
| | | WmaijDS               :      0.917u      0.017s      0.151w     68 calls
| | | WabejDS               :      3.500u      0.433s      0.576w     68 calls
| | | WnmjeDS               :      1.383u      0.083s      0.250w     68 calls
| | | WbmfeDS               :      6.767u      0.550s      1.073w     68 calls
| | sigmaDD                 :     55.300u      8.683s      9.611w     68 calls
| | | FDD                   :      2.467u      0.217s      0.416w     68 calls
| | | WmnijDD               :      0.133u      0.017s      0.019w     68 calls
| | | WabefDD               :     45.183u      7.700s      7.946w     68 calls
| | | WmbejDD               :      3.383u      0.467s      0.574w     68 calls
| | | WmnefDD               :      4.133u      0.283s      0.655w     68 calls
| | cc3_HC1                 :     86.617u     14.600s     15.184w     37 calls
| | cc3_HC1ET1              :    110.617u     18.317s     19.458w     37 calls
| | sigmaCC3                :   1974.817u     85.500s    309.137w     37 calls
| BUILD G                   :      1.400u      0.067s      0.233w     67 calls
| CALC RES                  :      2.000u      0.533s      0.358w     67 calls
| RESTART                   :      0.467u      0.117s      0.090w      7 calls

***********************************************************

Host: node16

Timers On : Sat Nov  5 10:19:14 2022
Timers Off: Sat Nov  5 10:27:15 2022

Wall Time:      481.12 seconds

Total PK formation time     :      2.933u      0.083s      0.474w      1 calls
HF: Form H                  :      0.017u      0.000s      0.005w      1 calls
HF: Form S/X                :      0.000u      0.000s      0.001w      1 calls
HF: Guess                   :      0.017u      0.000s      0.001w      1 calls
HF: Form G                  :      2.967u      0.067s      0.466w     16 calls
JK: D                       :      0.000u      0.000s      0.000w     16 calls
JK: USO2AO                  :      0.000u      0.000s      0.006w     16 calls
JK: JK                      :      2.933u      0.067s      0.451w     16 calls
PK computes JK              :      2.933u      0.067s      0.451w     16 calls
JK: AO2USO                  :      0.017u      0.000s      0.008w     16 calls
HF: Form F                  :      0.050u      0.000s      0.002w     16 calls
HF: DIIS                    :      0.050u      0.000s      0.008w     16 calls
DIISManager::add_entry      :      0.017u      0.000s      0.003w     16 calls
DIISManager::extrapolate    :      0.033u      0.000s      0.004w     15 calls
bMatrix setup               :      0.000u      0.000s      0.002w     15 calls
bMatrix pseudoinverse       :      0.000u      0.000s      0.001w     15 calls
New vector                  :      0.033u      0.000s      0.001w     15 calls
HF: Form C                  :      0.083u      0.000s      0.008w     16 calls
HF: Form D                  :      0.000u      0.000s      0.000w     16 calls
CCEOM                       :   2295.533u    142.317s    365.842w      1 calls
HBAR_EXTRA                  :      0.083u      0.017s      0.016w      1 calls
INIT GUESS                  :      0.267u      0.067s      0.136w      1 calls
SIGMA ALL                   :   2289.100u    141.100s    364.597w     68 calls
sigmaSS                     :      0.317u      0.033s      0.042w     68 calls
sigmaSD                     :      2.417u      0.483s      0.436w     68 calls
FSD                         :      0.400u      0.017s      0.054w     68 calls
WamefSD                     :      1.817u      0.433s      0.346w     68 calls
WmnieSD                     :      0.200u      0.033s      0.035w     68 calls
sigmaDS                     :     12.350u      1.250s      2.045w     68 calls
WmaijDS                     :      0.950u      0.133s      0.152w     68 calls
WabejDS                     :      3.333u      0.400s      0.566w     68 calls
WnmjeDS                     :      1.467u      0.167s      0.248w     68 calls
WbmfeDS                     :      6.600u      0.550s      1.079w     68 calls
sigmaDD                     :     56.217u      9.183s      9.810w     68 calls
FDD                         :      2.550u      0.267s      0.412w     68 calls
WmnijDD                     :      0.150u      0.017s      0.019w     68 calls
WabefDD                     :     45.983u      8.100s      8.139w     68 calls
WmbejDD                     :      3.433u      0.450s      0.581w     68 calls
WmnefDD                     :      4.083u      0.350s      0.657w     68 calls
cc3_HC1                     :     88.150u     15.400s     15.527w     37 calls
cc3_HC1ET1                  :    110.967u     18.967s     19.494w     37 calls
sigmaCC3                    :   2018.683u     95.783s    317.242w     37 calls
BUILD G                     :      1.183u      0.100s      0.200w     67 calls
CALC RES                    :      1.783u      0.500s      0.347w     67 calls
RESTART                     :      0.467u      0.133s      0.089w      7 calls

-----------------------------------------------------------
Total PK formation time     :      2.933u      0.083s      0.474w      1 calls
HF: Form H                  :      0.017u      0.000s      0.005w      1 calls
HF: Form S/X                :      0.000u      0.000s      0.001w      1 calls
HF: Guess                   :      0.017u      0.000s      0.001w      1 calls
HF: Form G                  :      2.967u      0.067s      0.466w     16 calls
| JK: D                     :      0.000u      0.000s      0.000w     16 calls
| JK: USO2AO                :      0.000u      0.000s      0.006w     16 calls
| JK: JK                    :      2.933u      0.067s      0.451w     16 calls
| | PK computes JK          :      2.933u      0.067s      0.451w     16 calls
| JK: AO2USO                :      0.017u      0.000s      0.008w     16 calls
HF: Form F                  :      0.050u      0.000s      0.002w     16 calls
HF: DIIS                    :      0.050u      0.000s      0.008w     16 calls
| DIISManager::add_entry    :      0.017u      0.000s      0.003w     16 calls
| DIISManager::extrapolate  :      0.033u      0.000s      0.004w     15 calls
| | bMatrix setup           :      0.000u      0.000s      0.002w     15 calls
| | bMatrix pseudoinverse   :      0.000u      0.000s      0.001w     15 calls
| | New vector              :      0.033u      0.000s      0.001w     15 calls
HF: Form C                  :      0.083u      0.000s      0.008w     16 calls
HF: Form D                  :      0.000u      0.000s      0.000w     16 calls
CCEOM                       :   2295.533u    142.317s    365.842w      1 calls
| HBAR_EXTRA                :      0.083u      0.017s      0.016w      1 calls
| INIT GUESS                :      0.267u      0.067s      0.136w      1 calls
| SIGMA ALL                 :   2289.100u    141.100s    364.597w     68 calls
| | sigmaSS                 :      0.317u      0.033s      0.042w     68 calls
| | sigmaSD                 :      2.417u      0.483s      0.436w     68 calls
| | | FSD                   :      0.400u      0.017s      0.054w     68 calls
| | | WamefSD               :      1.817u      0.433s      0.346w     68 calls
| | | WmnieSD               :      0.200u      0.033s      0.035w     68 calls
| | sigmaDS                 :     12.350u      1.250s      2.045w     68 calls
| | | WmaijDS               :      0.950u      0.133s      0.152w     68 calls
| | | WabejDS               :      3.333u      0.400s      0.566w     68 calls
| | | WnmjeDS               :      1.467u      0.167s      0.248w     68 calls
| | | WbmfeDS               :      6.600u      0.550s      1.079w     68 calls
| | sigmaDD                 :     56.217u      9.183s      9.810w     68 calls
| | | FDD                   :      2.550u      0.267s      0.412w     68 calls
| | | WmnijDD               :      0.150u      0.017s      0.019w     68 calls
| | | WabefDD               :     45.983u      8.100s      8.139w     68 calls
| | | WmbejDD               :      3.433u      0.450s      0.581w     68 calls
| | | WmnefDD               :      4.083u      0.350s      0.657w     68 calls
| | cc3_HC1                 :     88.150u     15.400s     15.527w     37 calls
| | cc3_HC1ET1              :    110.967u     18.967s     19.494w     37 calls
| | sigmaCC3                :   2018.683u     95.783s    317.242w     37 calls
| BUILD G                   :      1.183u      0.100s      0.200w     67 calls
| CALC RES                  :      1.783u      0.500s      0.347w     67 calls
| RESTART                   :      0.467u      0.133s      0.089w      7 calls

***********************************************************

Host: node15

Timers On : Sat Nov  5 10:19:24 2022
Timers Off: Sat Nov  5 10:27:32 2022

Wall Time:      488.09 seconds

Total PK formation time     :      2.683u      0.033s      0.405w      1 calls
HF: Form H                  :      0.083u      0.000s      0.017w      1 calls
HF: Form S/X                :      0.000u      0.000s      0.001w      1 calls
HF: Guess                   :      0.017u      0.000s      0.001w      1 calls
HF: Form G                  :      3.150u      0.067s      0.484w     16 calls
JK: D                       :      0.000u      0.000s      0.000w     16 calls
JK: USO2AO                  :      0.033u      0.000s      0.010w     16 calls
JK: JK                      :      3.050u      0.067s      0.465w     16 calls
PK computes JK              :      3.050u      0.067s      0.465w     16 calls
JK: AO2USO                  :      0.067u      0.000s      0.008w     16 calls
HF: Form F                  :      0.033u      0.000s      0.002w     16 calls
HF: DIIS                    :      0.017u      0.000s      0.008w     16 calls
DIISManager::add_entry      :      0.017u      0.000s      0.003w     16 calls
DIISManager::extrapolate    :      0.000u      0.000s      0.004w     15 calls
bMatrix setup               :      0.000u      0.000s      0.002w     15 calls
bMatrix pseudoinverse       :      0.000u      0.000s      0.001w     15 calls
New vector                  :      0.000u      0.000s      0.001w     15 calls
HF: Form C                  :      0.067u      0.000s      0.008w     16 calls
HF: Form D                  :      0.017u      0.000s      0.000w     16 calls
CCEOM                       :   2355.083u    138.567s    374.558w      1 calls
HBAR_EXTRA                  :      0.083u      0.017s      0.015w      1 calls
INIT GUESS                  :      0.367u      0.050s      0.129w      1 calls
SIGMA ALL                   :   2347.983u    137.583s    373.257w     68 calls
sigmaSS                     :      0.217u      0.017s      0.043w     68 calls
sigmaSD                     :      2.883u      0.417s      0.469w     68 calls
FSD                         :      0.400u      0.033s      0.054w     68 calls
WamefSD                     :      2.183u      0.367s      0.379w     68 calls
WmnieSD                     :      0.283u      0.017s      0.036w     68 calls
sigmaDS                     :     12.800u      1.217s      2.116w     68 calls
WmaijDS                     :      0.783u      0.117s      0.153w     68 calls
WabejDS                     :      3.700u      0.450s      0.606w     68 calls
WnmjeDS                     :      1.517u      0.167s      0.251w     68 calls
WbmfeDS                     :      6.800u      0.483s      1.105w     68 calls
sigmaDD                     :     57.633u      8.950s      9.982w     68 calls
FDD                         :      2.650u      0.233s      0.417w     68 calls
WmnijDD                     :      0.067u      0.000s      0.019w     68 calls
WabefDD                     :     47.417u      7.950s      8.298w     68 calls
WmbejDD                     :      3.333u      0.433s      0.582w     68 calls
WmnefDD                     :      4.133u      0.333s      0.665w     68 calls
cc3_HC1                     :     93.433u     15.267s     16.312w     37 calls
cc3_HC1ET1                  :    116.033u     19.183s     20.315w     37 calls
sigmaCC3                    :   2064.983u     92.533s    324.018w     37 calls
BUILD G                     :      1.400u      0.150s      0.228w     67 calls
CALC RES                    :      2.033u      0.317s      0.359w     67 calls
RESTART                     :      0.467u      0.100s      0.091w      7 calls

-----------------------------------------------------------
Total PK formation time     :      2.683u      0.033s      0.405w      1 calls
HF: Form H                  :      0.083u      0.000s      0.017w      1 calls
HF: Form S/X                :      0.000u      0.000s      0.001w      1 calls
HF: Guess                   :      0.017u      0.000s      0.001w      1 calls
HF: Form G                  :      3.150u      0.067s      0.484w     16 calls
| JK: D                     :      0.000u      0.000s      0.000w     16 calls
| JK: USO2AO                :      0.033u      0.000s      0.010w     16 calls
| JK: JK                    :      3.050u      0.067s      0.465w     16 calls
| | PK computes JK          :      3.050u      0.067s      0.465w     16 calls
| JK: AO2USO                :      0.067u      0.000s      0.008w     16 calls
HF: Form F                  :      0.033u      0.000s      0.002w     16 calls
HF: DIIS                    :      0.017u      0.000s      0.008w     16 calls
| DIISManager::add_entry    :      0.017u      0.000s      0.003w     16 calls
| DIISManager::extrapolate  :      0.000u      0.000s      0.004w     15 calls
| | bMatrix setup           :      0.000u      0.000s      0.002w     15 calls
| | bMatrix pseudoinverse   :      0.000u      0.000s      0.001w     15 calls
| | New vector              :      0.000u      0.000s      0.001w     15 calls
HF: Form C                  :      0.067u      0.000s      0.008w     16 calls
HF: Form D                  :      0.017u      0.000s      0.000w     16 calls
CCEOM                       :   2355.083u    138.567s    374.558w      1 calls
| HBAR_EXTRA                :      0.083u      0.017s      0.015w      1 calls
| INIT GUESS                :      0.367u      0.050s      0.129w      1 calls
| SIGMA ALL                 :   2347.983u    137.583s    373.257w     68 calls
| | sigmaSS                 :      0.217u      0.017s      0.043w     68 calls
| | sigmaSD                 :      2.883u      0.417s      0.469w     68 calls
| | | FSD                   :      0.400u      0.033s      0.054w     68 calls
| | | WamefSD               :      2.183u      0.367s      0.379w     68 calls
| | | WmnieSD               :      0.283u      0.017s      0.036w     68 calls
| | sigmaDS                 :     12.800u      1.217s      2.116w     68 calls
| | | WmaijDS               :      0.783u      0.117s      0.153w     68 calls
| | | WabejDS               :      3.700u      0.450s      0.606w     68 calls
| | | WnmjeDS               :      1.517u      0.167s      0.251w     68 calls
| | | WbmfeDS               :      6.800u      0.483s      1.105w     68 calls
| | sigmaDD                 :     57.633u      8.950s      9.982w     68 calls
| | | FDD                   :      2.650u      0.233s      0.417w     68 calls
| | | WmnijDD               :      0.067u      0.000s      0.019w     68 calls
| | | WabefDD               :     47.417u      7.950s      8.298w     68 calls
| | | WmbejDD               :      3.333u      0.433s      0.582w     68 calls
| | | WmnefDD               :      4.133u      0.333s      0.665w     68 calls
| | cc3_HC1                 :     93.433u     15.267s     16.312w     37 calls
| | cc3_HC1ET1              :    116.033u     19.183s     20.315w     37 calls
| | sigmaCC3                :   2064.983u     92.533s    324.018w     37 calls
| BUILD G                   :      1.400u      0.150s      0.228w     67 calls
| CALC RES                  :      2.033u      0.317s      0.359w     67 calls
| RESTART                   :      0.467u      0.100s      0.091w      7 calls

***********************************************************

Host: node20

Timers On : Sat Nov  5 10:19:24 2022
Timers Off: Sat Nov  5 10:27:48 2022

Wall Time:      504.33 seconds

Total PK formation time     :      3.533u      0.050s      0.539w      1 calls
HF: Form H                  :      0.017u      0.000s      0.004w      1 calls
HF: Form S/X                :      0.017u      0.000s      0.001w      1 calls
HF: Guess                   :      0.000u      0.000s      0.001w      1 calls
HF: Form G                  :      3.267u      0.100s      0.507w     16 calls
JK: D                       :      0.000u      0.000s      0.000w     16 calls
JK: USO2AO                  :      0.067u      0.000s      0.007w     16 calls
JK: JK                      :      3.183u      0.100s      0.491w     16 calls
PK computes JK              :      3.183u      0.100s      0.491w     16 calls
JK: AO2USO                  :      0.017u      0.000s      0.008w     16 calls
HF: Form F                  :      0.017u      0.000s      0.002w     16 calls
HF: DIIS                    :      0.083u      0.000s      0.009w     16 calls
DIISManager::add_entry      :      0.033u      0.000s      0.002w     16 calls
DIISManager::extrapolate    :      0.050u      0.000s      0.005w     15 calls
bMatrix setup               :      0.033u      0.000s      0.002w     15 calls
bMatrix pseudoinverse       :      0.017u      0.000s      0.001w     15 calls
New vector                  :      0.000u      0.000s      0.002w     15 calls
HF: Form C                  :      0.033u      0.017s      0.009w     16 calls
HF: Form D                  :      0.000u      0.000s      0.000w     16 calls
CCEOM                       :   2364.033u    148.683s    378.699w      1 calls
HBAR_EXTRA                  :      0.083u      0.017s      0.014w      1 calls
INIT GUESS                  :      0.317u      0.067s      0.128w      1 calls
SIGMA ALL                   :   2356.117u    147.667s    377.029w     68 calls
sigmaSS                     :      0.333u      0.000s      0.042w     68 calls
sigmaSD                     :      2.600u      0.417s      0.471w     68 calls
FSD                         :      0.350u      0.050s      0.056w     68 calls
WamefSD                     :      2.083u      0.367s      0.378w     68 calls
WmnieSD                     :      0.150u      0.000s      0.036w     68 calls
sigmaDS                     :     13.050u      1.300s      2.127w     68 calls
WmaijDS                     :      1.000u      0.167s      0.156w     68 calls
WabejDS                     :      3.417u      0.417s      0.591w     68 calls
WnmjeDS                     :      1.700u      0.150s      0.254w     68 calls
WbmfeDS                     :      6.917u      0.567s      1.125w     68 calls
sigmaDD                     :     58.300u      9.850s     10.211w     68 calls
FDD                         :      2.550u      0.233s      0.422w     68 calls
WmnijDD                     :      0.167u      0.017s      0.019w     68 calls
WabefDD                     :     47.883u      8.633s      8.499w     68 calls
WmbejDD                     :      3.483u      0.600s      0.593w     68 calls
WmnefDD                     :      4.217u      0.367s      0.676w     68 calls
cc3_HC1                     :     94.667u     16.983s     16.763w     37 calls
cc3_HC1ET1                  :    116.950u     20.700s     20.659w     37 calls
sigmaCC3                    :   2070.217u     98.417s    326.755w     37 calls
BUILD G                     :      1.233u      0.067s      0.210w     67 calls
CALC RES                    :      2.083u      0.317s      0.356w     67 calls
RESTART                     :      0.500u      0.100s      0.092w      7 calls

-----------------------------------------------------------
Total PK formation time     :      3.533u      0.050s      0.539w      1 calls
HF: Form H                  :      0.017u      0.000s      0.004w      1 calls
HF: Form S/X                :      0.017u      0.000s      0.001w      1 calls
HF: Guess                   :      0.000u      0.000s      0.001w      1 calls
HF: Form G                  :      3.267u      0.100s      0.507w     16 calls
| JK: D                     :      0.000u      0.000s      0.000w     16 calls
| JK: USO2AO                :      0.067u      0.000s      0.007w     16 calls
| JK: JK                    :      3.183u      0.100s      0.491w     16 calls
| | PK computes JK          :      3.183u      0.100s      0.491w     16 calls
| JK: AO2USO                :      0.017u      0.000s      0.008w     16 calls
HF: Form F                  :      0.017u      0.000s      0.002w     16 calls
HF: DIIS                    :      0.083u      0.000s      0.009w     16 calls
| DIISManager::add_entry    :      0.033u      0.000s      0.002w     16 calls
| DIISManager::extrapolate  :      0.050u      0.000s      0.005w     15 calls
| | bMatrix setup           :      0.033u      0.000s      0.002w     15 calls
| | bMatrix pseudoinverse   :      0.017u      0.000s      0.001w     15 calls
| | New vector              :      0.000u      0.000s      0.002w     15 calls
HF: Form C                  :      0.033u      0.017s      0.009w     16 calls
HF: Form D                  :      0.000u      0.000s      0.000w     16 calls
CCEOM                       :   2364.033u    148.683s    378.699w      1 calls
| HBAR_EXTRA                :      0.083u      0.017s      0.014w      1 calls
| INIT GUESS                :      0.317u      0.067s      0.128w      1 calls
| SIGMA ALL                 :   2356.117u    147.667s    377.029w     68 calls
| | sigmaSS                 :      0.333u      0.000s      0.042w     68 calls
| | sigmaSD                 :      2.600u      0.417s      0.471w     68 calls
| | | FSD                   :      0.350u      0.050s      0.056w     68 calls
| | | WamefSD               :      2.083u      0.367s      0.378w     68 calls
| | | WmnieSD               :      0.150u      0.000s      0.036w     68 calls
| | sigmaDS                 :     13.050u      1.300s      2.127w     68 calls
| | | WmaijDS               :      1.000u      0.167s      0.156w     68 calls
| | | WabejDS               :      3.417u      0.417s      0.591w     68 calls
| | | WnmjeDS               :      1.700u      0.150s      0.254w     68 calls
| | | WbmfeDS               :      6.917u      0.567s      1.125w     68 calls
| | sigmaDD                 :     58.300u      9.850s     10.211w     68 calls
| | | FDD                   :      2.550u      0.233s      0.422w     68 calls
| | | WmnijDD               :      0.167u      0.017s      0.019w     68 calls
| | | WabefDD               :     47.883u      8.633s      8.499w     68 calls
| | | WmbejDD               :      3.483u      0.600s      0.593w     68 calls
| | | WmnefDD               :      4.217u      0.367s      0.676w     68 calls
| | cc3_HC1                 :     94.667u     16.983s     16.763w     37 calls
| | cc3_HC1ET1              :    116.950u     20.700s     20.659w     37 calls
| | sigmaCC3                :   2070.217u     98.417s    326.755w     37 calls
| BUILD G                   :      1.233u      0.067s      0.210w     67 calls
| CALC RES                  :      2.083u      0.317s      0.356w     67 calls
| RESTART                   :      0.500u      0.100s      0.092w      7 calls

***********************************************************

Host: node10

Timers On : Sat Nov  5 10:19:26 2022
Timers Off: Sat Nov  5 10:28:22 2022

Wall Time:      536.25 seconds

Total PK formation time     :      3.667u      0.083s      0.573w      1 calls
HF: Form H                  :      0.033u      0.000s      0.005w      1 calls
HF: Form S/X                :      0.000u      0.000s      0.001w      1 calls
HF: Guess                   :      0.000u      0.000s      0.001w      1 calls
HF: Form G                  :      3.450u      0.083s      0.533w     17 calls
JK: D                       :      0.000u      0.000s      0.000w     17 calls
JK: USO2AO                  :      0.000u      0.000s      0.005w     17 calls
JK: JK                      :      3.433u      0.083s      0.520w     17 calls
PK computes JK              :      3.433u      0.083s      0.520w     17 calls
JK: AO2USO                  :      0.017u      0.000s      0.007w     17 calls
HF: Form F                  :      0.000u      0.000s      0.002w     17 calls
HF: DIIS                    :      0.050u      0.000s      0.009w     17 calls
DIISManager::add_entry      :      0.000u      0.000s      0.003w     17 calls
DIISManager::extrapolate    :      0.050u      0.000s      0.005w     16 calls
bMatrix setup               :      0.033u      0.000s      0.002w     16 calls
bMatrix pseudoinverse       :      0.000u      0.000s      0.001w     16 calls
New vector                  :      0.017u      0.000s      0.002w     16 calls
HF: Form C                  :      0.117u      0.000s      0.010w     17 calls
HF: Form D                  :      0.000u      0.000s      0.000w     17 calls
CCEOM                       :   2607.117u    160.333s    415.327w      1 calls
HBAR_EXTRA                  :      0.083u      0.000s      0.015w      1 calls
INIT GUESS                  :      0.350u      0.050s      0.131w      1 calls
SIGMA ALL                   :   2599.633u    159.117s    413.958w     68 calls
sigmaSS                     :      0.217u      0.017s      0.043w     68 calls
sigmaSD                     :      2.950u      0.367s      0.498w     68 calls
FSD                         :      0.283u      0.033s      0.054w     68 calls
WamefSD                     :      2.400u      0.333s      0.406w     68 calls
WmnieSD                     :      0.267u      0.000s      0.037w     68 calls
sigmaDS                     :     13.167u      1.183s      2.155w     68 calls
WmaijDS                     :      0.883u      0.117s      0.155w     68 calls
WabejDS                     :      3.883u      0.400s      0.651w     68 calls
WnmjeDS                     :      1.617u      0.167s      0.254w     68 calls
WbmfeDS                     :      6.783u      0.500s      1.095w     68 calls
sigmaDD                     :     62.167u     10.367s     10.880w     68 calls
FDD                         :      2.517u      0.200s      0.420w     68 calls
WmnijDD                     :      0.150u      0.000s      0.019w     68 calls
WabefDD                     :     51.767u      9.200s      9.159w     68 calls
WmbejDD                     :      3.700u      0.533s      0.610w     68 calls
WmnefDD                     :      4.000u      0.433s      0.670w     68 calls
cc3_HC1                     :     97.700u     17.167s     17.307w     37 calls
cc3_HC1ET1                  :    121.167u     19.833s     21.195w     37 calls
sigmaCC3                    :   2302.267u    110.183s    361.878w     37 calls
BUILD G                     :      1.417u      0.100s      0.252w     67 calls
CALC RES                    :      2.100u      0.367s      0.373w     67 calls
RESTART                     :      0.567u      0.050s      0.097w      7 calls

-----------------------------------------------------------
Total PK formation time     :      3.667u      0.083s      0.573w      1 calls
HF: Form H                  :      0.033u      0.000s      0.005w      1 calls
HF: Form S/X                :      0.000u      0.000s      0.001w      1 calls
HF: Guess                   :      0.000u      0.000s      0.001w      1 calls
HF: Form G                  :      3.450u      0.083s      0.533w     17 calls
| JK: D                     :      0.000u      0.000s      0.000w     17 calls
| JK: USO2AO                :      0.000u      0.000s      0.005w     17 calls
| JK: JK                    :      3.433u      0.083s      0.520w     17 calls
| | PK computes JK          :      3.433u      0.083s      0.520w     17 calls
| JK: AO2USO                :      0.017u      0.000s      0.007w     17 calls
HF: Form F                  :      0.000u      0.000s      0.002w     17 calls
HF: DIIS                    :      0.050u      0.000s      0.009w     17 calls
| DIISManager::add_entry    :      0.000u      0.000s      0.003w     17 calls
| DIISManager::extrapolate  :      0.050u      0.000s      0.005w     16 calls
| | bMatrix setup           :      0.033u      0.000s      0.002w     16 calls
| | bMatrix pseudoinverse   :      0.000u      0.000s      0.001w     16 calls
| | New vector              :      0.017u      0.000s      0.002w     16 calls
HF: Form C                  :      0.117u      0.000s      0.010w     17 calls
HF: Form D                  :      0.000u      0.000s      0.000w     17 calls
CCEOM                       :   2607.117u    160.333s    415.327w      1 calls
| HBAR_EXTRA                :      0.083u      0.000s      0.015w      1 calls
| INIT GUESS                :      0.350u      0.050s      0.131w      1 calls
| SIGMA ALL                 :   2599.633u    159.117s    413.958w     68 calls
| | sigmaSS                 :      0.217u      0.017s      0.043w     68 calls
| | sigmaSD                 :      2.950u      0.367s      0.498w     68 calls
| | | FSD                   :      0.283u      0.033s      0.054w     68 calls
| | | WamefSD               :      2.400u      0.333s      0.406w     68 calls
| | | WmnieSD               :      0.267u      0.000s      0.037w     68 calls
| | sigmaDS                 :     13.167u      1.183s      2.155w     68 calls
| | | WmaijDS               :      0.883u      0.117s      0.155w     68 calls
| | | WabejDS               :      3.883u      0.400s      0.651w     68 calls
| | | WnmjeDS               :      1.617u      0.167s      0.254w     68 calls
| | | WbmfeDS               :      6.783u      0.500s      1.095w     68 calls
| | sigmaDD                 :     62.167u     10.367s     10.880w     68 calls
| | | FDD                   :      2.517u      0.200s      0.420w     68 calls
| | | WmnijDD               :      0.150u      0.000s      0.019w     68 calls
| | | WabefDD               :     51.767u      9.200s      9.159w     68 calls
| | | WmbejDD               :      3.700u      0.533s      0.610w     68 calls
| | | WmnefDD               :      4.000u      0.433s      0.670w     68 calls
| | cc3_HC1                 :     97.700u     17.167s     17.307w     37 calls
| | cc3_HC1ET1              :    121.167u     19.833s     21.195w     37 calls
| | sigmaCC3                :   2302.267u    110.183s    361.878w     37 calls
| BUILD G                   :      1.417u      0.100s      0.252w     67 calls
| CALC RES                  :      2.100u      0.367s      0.373w     67 calls
| RESTART                   :      0.567u      0.050s      0.097w      7 calls

***********************************************************

Host: node11

Timers On : Sat Nov  5 10:19:22 2022
Timers Off: Sat Nov  5 10:28:26 2022

Wall Time:      544.20 seconds

Total PK formation time     :      3.750u      0.067s      0.590w      1 calls
HF: Form H                  :      0.033u      0.000s      0.006w      1 calls
HF: Form S/X                :      0.000u      0.000s      0.001w      1 calls
HF: Guess                   :      0.000u      0.000s      0.001w      1 calls
HF: Form G                  :      3.217u      0.083s      0.498w     16 calls
JK: D                       :      0.000u      0.000s      0.000w     16 calls
JK: USO2AO                  :      0.033u      0.000s      0.006w     16 calls
JK: JK                      :      3.167u      0.083s      0.483w     16 calls
PK computes JK              :      3.167u      0.083s      0.483w     16 calls
JK: AO2USO                  :      0.017u      0.000s      0.008w     16 calls
HF: Form F                  :      0.033u      0.000s      0.002w     16 calls
HF: DIIS                    :      0.017u      0.017s      0.009w     16 calls
DIISManager::add_entry      :      0.000u      0.000s      0.003w     16 calls
DIISManager::extrapolate    :      0.017u      0.017s      0.005w     15 calls
bMatrix setup               :      0.000u      0.000s      0.002w     15 calls
bMatrix pseudoinverse       :      0.000u      0.000s      0.001w     15 calls
New vector                  :      0.017u      0.017s      0.002w     15 calls
HF: Form C                  :      0.100u      0.000s      0.010w     16 calls
HF: Form D                  :      0.000u      0.000s      0.000w     16 calls
CCEOM                       :   2755.000u    163.783s    438.124w      1 calls
HBAR_EXTRA                  :      0.083u      0.000s      0.014w      1 calls
INIT GUESS                  :      0.317u      0.050s      0.141w      1 calls
SIGMA ALL                   :   2747.950u    162.683s    436.813w     68 calls
sigmaSS                     :      0.383u      0.017s      0.051w     68 calls
sigmaSD                     :      2.600u      0.400s      0.456w     68 calls
FSD                         :      0.350u      0.033s      0.062w     68 calls
WamefSD                     :      2.083u      0.333s      0.354w     68 calls
WmnieSD                     :      0.150u      0.033s      0.040w     68 calls
sigmaDS                     :     14.233u      1.300s      2.334w     68 calls
WmaijDS                     :      1.133u      0.067s      0.182w     68 calls
WabejDS                     :      3.533u      0.450s      0.593w     68 calls
WnmjeDS                     :      1.817u      0.117s      0.294w     68 calls
WbmfeDS                     :      7.733u      0.667s      1.263w     68 calls
sigmaDD                     :     61.350u     10.183s     10.735w     68 calls
FDD                         :      2.967u      0.367s      0.488w     68 calls
WmnijDD                     :      0.167u      0.017s      0.021w     68 calls
WabefDD                     :     49.733u      8.933s      8.812w     68 calls
WmbejDD                     :      3.350u      0.600s      0.605w     68 calls
WmnefDD                     :      5.083u      0.267s      0.808w     68 calls
cc3_HC1                     :    101.750u     17.667s     17.919w     37 calls
cc3_HC1ET1                  :    126.833u     22.233s     22.492w     37 calls
sigmaCC3                    :   2440.767u    110.883s    382.825w     37 calls
BUILD G                     :      1.333u      0.100s      0.210w     67 calls
CALC RES                    :      1.983u      0.383s      0.364w     67 calls
RESTART                     :      0.517u      0.100s      0.092w      7 calls

-----------------------------------------------------------
Total PK formation time     :      3.750u      0.067s      0.590w      1 calls
HF: Form H                  :      0.033u      0.000s      0.006w      1 calls
HF: Form S/X                :      0.000u      0.000s      0.001w      1 calls
HF: Guess                   :      0.000u      0.000s      0.001w      1 calls
HF: Form G                  :      3.217u      0.083s      0.498w     16 calls
| JK: D                     :      0.000u      0.000s      0.000w     16 calls
| JK: USO2AO                :      0.033u      0.000s      0.006w     16 calls
| JK: JK                    :      3.167u      0.083s      0.483w     16 calls
| | PK computes JK          :      3.167u      0.083s      0.483w     16 calls
| JK: AO2USO                :      0.017u      0.000s      0.008w     16 calls
HF: Form F                  :      0.033u      0.000s      0.002w     16 calls
HF: DIIS                    :      0.017u      0.017s      0.009w     16 calls
| DIISManager::add_entry    :      0.000u      0.000s      0.003w     16 calls
| DIISManager::extrapolate  :      0.017u      0.017s      0.005w     15 calls
| | bMatrix setup           :      0.000u      0.000s      0.002w     15 calls
| | bMatrix pseudoinverse   :      0.000u      0.000s      0.001w     15 calls
| | New vector              :      0.017u      0.017s      0.002w     15 calls
HF: Form C                  :      0.100u      0.000s      0.010w     16 calls
HF: Form D                  :      0.000u      0.000s      0.000w     16 calls
CCEOM                       :   2755.000u    163.783s    438.124w      1 calls
| HBAR_EXTRA                :      0.083u      0.000s      0.014w      1 calls
| INIT GUESS                :      0.317u      0.050s      0.141w      1 calls
| SIGMA ALL                 :   2747.950u    162.683s    436.813w     68 calls
| | sigmaSS                 :      0.383u      0.017s      0.051w     68 calls
| | sigmaSD                 :      2.600u      0.400s      0.456w     68 calls
| | | FSD                   :      0.350u      0.033s      0.062w     68 calls
| | | WamefSD               :      2.083u      0.333s      0.354w     68 calls
| | | WmnieSD               :      0.150u      0.033s      0.040w     68 calls
| | sigmaDS                 :     14.233u      1.300s      2.334w     68 calls
| | | WmaijDS               :      1.133u      0.067s      0.182w     68 calls
| | | WabejDS               :      3.533u      0.450s      0.593w     68 calls
| | | WnmjeDS               :      1.817u      0.117s      0.294w     68 calls
| | | WbmfeDS               :      7.733u      0.667s      1.263w     68 calls
| | sigmaDD                 :     61.350u     10.183s     10.735w     68 calls
| | | FDD                   :      2.967u      0.367s      0.488w     68 calls
| | | WmnijDD               :      0.167u      0.017s      0.021w     68 calls
| | | WabefDD               :     49.733u      8.933s      8.812w     68 calls
| | | WmbejDD               :      3.350u      0.600s      0.605w     68 calls
| | | WmnefDD               :      5.083u      0.267s      0.808w     68 calls
| | cc3_HC1                 :    101.750u     17.667s     17.919w     37 calls
| | cc3_HC1ET1              :    126.833u     22.233s     22.492w     37 calls
| | sigmaCC3                :   2440.767u    110.883s    382.825w     37 calls
| BUILD G                   :      1.333u      0.100s      0.210w     67 calls
| CALC RES                  :      1.983u      0.383s      0.364w     67 calls
| RESTART                   :      0.517u      0.100s      0.092w      7 calls

***********************************************************

Host: node11

Timers On : Sat Nov  5 10:19:22 2022
Timers Off: Sat Nov  5 10:28:32 2022

Wall Time:      549.39 seconds

Total PK formation time     :      3.667u      0.067s      0.578w      1 calls
HF: Form H                  :      0.033u      0.000s      0.004w      1 calls
HF: Form S/X                :      0.000u      0.000s      0.001w      1 calls
HF: Guess                   :      0.000u      0.000s      0.001w      1 calls
HF: Form G                  :      3.150u      0.067s      0.487w     16 calls
JK: D                       :      0.017u      0.000s      0.000w     16 calls
JK: USO2AO                  :      0.083u      0.000s      0.005w     16 calls
JK: JK                      :      3.033u      0.067s      0.475w     16 calls
PK computes JK              :      3.033u      0.067s      0.474w     16 calls
JK: AO2USO                  :      0.017u      0.000s      0.006w     16 calls
HF: Form F                  :      0.033u      0.017s      0.002w     16 calls
HF: DIIS                    :      0.083u      0.017s      0.009w     16 calls
DIISManager::add_entry      :      0.000u      0.000s      0.002w     16 calls
DIISManager::extrapolate    :      0.050u      0.017s      0.005w     15 calls
bMatrix setup               :      0.017u      0.000s      0.002w     15 calls
bMatrix pseudoinverse       :      0.017u      0.000s      0.001w     15 calls
New vector                  :      0.017u      0.000s      0.002w     15 calls
HF: Form C                  :      0.033u      0.000s      0.009w     16 calls
HF: Form D                  :      0.000u      0.000s      0.000w     16 calls
CCEOM                       :   2675.617u    169.683s    427.406w      1 calls
HBAR_EXTRA                  :      0.067u      0.033s      0.016w      1 calls
INIT GUESS                  :      0.383u      0.033s      0.133w      1 calls
SIGMA ALL                   :   2667.400u    168.567s    425.724w     68 calls
sigmaSS                     :      0.350u      0.067s      0.059w     68 calls
sigmaSD                     :      2.450u      0.433s      0.435w     68 calls
FSD                         :      0.400u      0.033s      0.070w     68 calls
WamefSD                     :      1.867u      0.367s      0.321w     68 calls
WmnieSD                     :      0.183u      0.033s      0.044w     68 calls
sigmaDS                     :     15.900u      1.483s      2.601w     68 calls
WmaijDS                     :      1.217u      0.100s      0.213w     68 calls
WabejDS                     :      3.550u      0.500s      0.599w     68 calls
WnmjeDS                     :      1.967u      0.233s      0.330w     68 calls
WbmfeDS                     :      9.133u      0.650s      1.458w     68 calls
sigmaDD                     :     64.633u     10.500s     11.285w     68 calls
FDD                         :      3.267u      0.283s      0.558w     68 calls
WmnijDD                     :      0.167u      0.000s      0.023w     68 calls
WabefDD                     :     52.050u      9.183s      9.160w     68 calls
WmbejDD                     :      3.300u      0.500s      0.587w     68 calls
WmnefDD                     :      5.850u      0.517s      0.956w     68 calls
cc3_HC1                     :     96.750u     17.933s     17.193w     37 calls
cc3_HC1ET1                  :    122.417u     21.850s     21.658w     37 calls
sigmaCC3                    :   2364.883u    116.300s    372.490w     37 calls
BUILD G                     :      1.200u      0.067s      0.188w     67 calls
CALC RES                    :      2.083u      0.467s      0.394w     67 calls
RESTART                     :      0.533u      0.067s      0.095w      7 calls

-----------------------------------------------------------
Total PK formation time     :      3.667u      0.067s      0.578w      1 calls
HF: Form H                  :      0.033u      0.000s      0.004w      1 calls
HF: Form S/X                :      0.000u      0.000s      0.001w      1 calls
HF: Guess                   :      0.000u      0.000s      0.001w      1 calls
HF: Form G                  :      3.150u      0.067s      0.487w     16 calls
| JK: D                     :      0.017u      0.000s      0.000w     16 calls
| JK: USO2AO                :      0.083u      0.000s      0.005w     16 calls
| JK: JK                    :      3.033u      0.067s      0.475w     16 calls
| | PK computes JK          :      3.033u      0.067s      0.474w     16 calls
| JK: AO2USO                :      0.017u      0.000s      0.006w     16 calls
HF: Form F                  :      0.033u      0.017s      0.002w     16 calls
HF: DIIS                    :      0.083u      0.017s      0.009w     16 calls
| DIISManager::add_entry    :      0.000u      0.000s      0.002w     16 calls
| DIISManager::extrapolate  :      0.050u      0.017s      0.005w     15 calls
| | bMatrix setup           :      0.017u      0.000s      0.002w     15 calls
| | bMatrix pseudoinverse   :      0.017u      0.000s      0.001w     15 calls
| | New vector              :      0.017u      0.000s      0.002w     15 calls
HF: Form C                  :      0.033u      0.000s      0.009w     16 calls
HF: Form D                  :      0.000u      0.000s      0.000w     16 calls
CCEOM                       :   2675.617u    169.683s    427.406w      1 calls
| HBAR_EXTRA                :      0.067u      0.033s      0.016w      1 calls
| INIT GUESS                :      0.383u      0.033s      0.133w      1 calls
| SIGMA ALL                 :   2667.400u    168.567s    425.724w     68 calls
| | sigmaSS                 :      0.350u      0.067s      0.059w     68 calls
| | sigmaSD                 :      2.450u      0.433s      0.435w     68 calls
| | | FSD                   :      0.400u      0.033s      0.070w     68 calls
| | | WamefSD               :      1.867u      0.367s      0.321w     68 calls
| | | WmnieSD               :      0.183u      0.033s      0.044w     68 calls
| | sigmaDS                 :     15.900u      1.483s      2.601w     68 calls
| | | WmaijDS               :      1.217u      0.100s      0.213w     68 calls
| | | WabejDS               :      3.550u      0.500s      0.599w     68 calls
| | | WnmjeDS               :      1.967u      0.233s      0.330w     68 calls
| | | WbmfeDS               :      9.133u      0.650s      1.458w     68 calls
| | sigmaDD                 :     64.633u     10.500s     11.285w     68 calls
| | | FDD                   :      3.267u      0.283s      0.558w     68 calls
| | | WmnijDD               :      0.167u      0.000s      0.023w     68 calls
| | | WabefDD               :     52.050u      9.183s      9.160w     68 calls
| | | WmbejDD               :      3.300u      0.500s      0.587w     68 calls
| | | WmnefDD               :      5.850u      0.517s      0.956w     68 calls
| | cc3_HC1                 :     96.750u     17.933s     17.193w     37 calls
| | cc3_HC1ET1              :    122.417u     21.850s     21.658w     37 calls
| | sigmaCC3                :   2364.883u    116.300s    372.490w     37 calls
| BUILD G                   :      1.200u      0.067s      0.188w     67 calls
| CALC RES                  :      2.083u      0.467s      0.394w     67 calls
| RESTART                   :      0.533u      0.067s      0.095w      7 calls

***********************************************************

Host: node20

Timers On : Sat Nov  5 10:19:24 2022
Timers Off: Sat Nov  5 10:28:35 2022

Wall Time:      550.77 seconds

Total PK formation time     :      2.883u      0.067s      0.441w      1 calls
HF: Form H                  :      0.033u      0.000s      0.008w      1 calls
HF: Form S/X                :      0.017u      0.000s      0.001w      1 calls
HF: Guess                   :      0.000u      0.000s      0.001w      1 calls
HF: Form G                  :      3.850u      0.117s      0.592w     16 calls
JK: D                       :      0.033u      0.000s      0.000w     16 calls
JK: USO2AO                  :      0.050u      0.000s      0.008w     16 calls
JK: JK                      :      3.733u      0.117s      0.574w     16 calls
PK computes JK              :      3.733u      0.117s      0.574w     16 calls
JK: AO2USO                  :      0.033u      0.000s      0.009w     16 calls
HF: Form F                  :      0.000u      0.017s      0.002w     16 calls
HF: DIIS                    :      0.033u      0.033s      0.009w     16 calls
DIISManager::add_entry      :      0.017u      0.017s      0.003w     16 calls
DIISManager::extrapolate    :      0.017u      0.017s      0.004w     15 calls
bMatrix setup               :      0.000u      0.000s      0.002w     15 calls
bMatrix pseudoinverse       :      0.000u      0.000s      0.001w     15 calls
New vector                  :      0.000u      0.017s      0.001w     15 calls
HF: Form C                  :      0.033u      0.000s      0.008w     16 calls
HF: Form D                  :      0.000u      0.000s      0.000w     16 calls
CCEOM                       :   2652.467u    174.717s    425.456w      1 calls
HBAR_EXTRA                  :      0.050u      0.017s      0.015w      1 calls
INIT GUESS                  :      0.233u      0.067s      0.131w      1 calls
SIGMA ALL                   :   2643.967u    173.483s    423.794w     68 calls
sigmaSS                     :      0.317u      0.067s      0.062w     68 calls
sigmaSD                     :      2.817u      0.500s      0.492w     68 calls
FSD                         :      0.433u      0.067s      0.064w     68 calls
WamefSD                     :      2.183u      0.433s      0.385w     68 calls
WmnieSD                     :      0.183u      0.000s      0.042w     68 calls
sigmaDS                     :     15.317u      1.383s      2.520w     68 calls
WmaijDS                     :      1.250u      0.167s      0.195w     68 calls
WabejDS                     :      3.933u      0.450s      0.672w     68 calls
WnmjeDS                     :      1.817u      0.133s      0.307w     68 calls
WbmfeDS                     :      8.317u      0.633s      1.345w     68 calls
sigmaDD                     :     66.400u     11.300s     11.795w     68 calls
FDD                         :      3.233u      0.333s      0.513w     68 calls
WmnijDD                     :      0.150u      0.017s      0.023w     68 calls
WabefDD                     :     54.250u     10.033s      9.775w     68 calls
WmbejDD                     :      3.483u      0.550s      0.624w     68 calls
WmnefDD                     :      5.267u      0.367s      0.858w     68 calls
cc3_HC1                     :    102.133u     18.467s     18.091w     37 calls
cc3_HC1ET1                  :    126.133u     22.700s     22.340w     37 calls
sigmaCC3                    :   2330.817u    119.067s    368.493w     37 calls
BUILD G                     :      1.450u      0.100s      0.226w     67 calls
CALC RES                    :      2.250u      0.367s      0.396w     67 calls
RESTART                     :      0.550u      0.117s      0.101w      7 calls

-----------------------------------------------------------
Total PK formation time     :      2.883u      0.067s      0.441w      1 calls
HF: Form H                  :      0.033u      0.000s      0.008w      1 calls
HF: Form S/X                :      0.017u      0.000s      0.001w      1 calls
HF: Guess                   :      0.000u      0.000s      0.001w      1 calls
HF: Form G                  :      3.850u      0.117s      0.592w     16 calls
| JK: D                     :      0.033u      0.000s      0.000w     16 calls
| JK: USO2AO                :      0.050u      0.000s      0.008w     16 calls
| JK: JK                    :      3.733u      0.117s      0.574w     16 calls
| | PK computes JK          :      3.733u      0.117s      0.574w     16 calls
| JK: AO2USO                :      0.033u      0.000s      0.009w     16 calls
HF: Form F                  :      0.000u      0.017s      0.002w     16 calls
HF: DIIS                    :      0.033u      0.033s      0.009w     16 calls
| DIISManager::add_entry    :      0.017u      0.017s      0.003w     16 calls
| DIISManager::extrapolate  :      0.017u      0.017s      0.004w     15 calls
| | bMatrix setup           :      0.000u      0.000s      0.002w     15 calls
| | bMatrix pseudoinverse   :      0.000u      0.000s      0.001w     15 calls
| | New vector              :      0.000u      0.017s      0.001w     15 calls
HF: Form C                  :      0.033u      0.000s      0.008w     16 calls
HF: Form D                  :      0.000u      0.000s      0.000w     16 calls
CCEOM                       :   2652.467u    174.717s    425.456w      1 calls
| HBAR_EXTRA                :      0.050u      0.017s      0.015w      1 calls
| INIT GUESS                :      0.233u      0.067s      0.131w      1 calls
| SIGMA ALL                 :   2643.967u    173.483s    423.794w     68 calls
| | sigmaSS                 :      0.317u      0.067s      0.062w     68 calls
| | sigmaSD                 :      2.817u      0.500s      0.492w     68 calls
| | | FSD                   :      0.433u      0.067s      0.064w     68 calls
| | | WamefSD               :      2.183u      0.433s      0.385w     68 calls
| | | WmnieSD               :      0.183u      0.000s      0.042w     68 calls
| | sigmaDS                 :     15.317u      1.383s      2.520w     68 calls
| | | WmaijDS               :      1.250u      0.167s      0.195w     68 calls
| | | WabejDS               :      3.933u      0.450s      0.672w     68 calls
| | | WnmjeDS               :      1.817u      0.133s      0.307w     68 calls
| | | WbmfeDS               :      8.317u      0.633s      1.345w     68 calls
| | sigmaDD                 :     66.400u     11.300s     11.795w     68 calls
| | | FDD                   :      3.233u      0.333s      0.513w     68 calls
| | | WmnijDD               :      0.150u      0.017s      0.023w     68 calls
| | | WabefDD               :     54.250u     10.033s      9.775w     68 calls
| | | WmbejDD               :      3.483u      0.550s      0.624w     68 calls
| | | WmnefDD               :      5.267u      0.367s      0.858w     68 calls
| | cc3_HC1                 :    102.133u     18.467s     18.091w     37 calls
| | cc3_HC1ET1              :    126.133u     22.700s     22.340w     37 calls
| | sigmaCC3                :   2330.817u    119.067s    368.493w     37 calls
| BUILD G                   :      1.450u      0.100s      0.226w     67 calls
| CALC RES                  :      2.250u      0.367s      0.396w     67 calls
| RESTART                   :      0.550u      0.117s      0.101w      7 calls

***********************************************************

Host: node16

Timers On : Sat Nov  5 10:19:14 2022
Timers Off: Sat Nov  5 10:28:33 2022

Wall Time:      559.59 seconds

Total PK formation time     :      3.350u      0.050s      0.524w      1 calls
HF: Form H                  :      0.050u      0.000s      0.013w      1 calls
HF: Form S/X                :      0.017u      0.000s      0.001w      1 calls
HF: Guess                   :      0.000u      0.000s      0.001w      1 calls
HF: Form G                  :      3.183u      0.033s      0.488w     16 calls
JK: D                       :      0.017u      0.000s      0.000w     16 calls
JK: USO2AO                  :      0.017u      0.000s      0.005w     16 calls
JK: JK                      :      3.100u      0.033s      0.476w     16 calls
PK computes JK              :      3.100u      0.033s      0.476w     16 calls
JK: AO2USO                  :      0.050u      0.000s      0.006w     16 calls
HF: Form F                  :      0.033u      0.017s      0.002w     16 calls
HF: DIIS                    :      0.050u      0.000s      0.008w     16 calls
DIISManager::add_entry      :      0.000u      0.000s      0.003w     16 calls
DIISManager::extrapolate    :      0.033u      0.000s      0.005w     15 calls
bMatrix setup               :      0.000u      0.000s      0.002w     15 calls
bMatrix pseudoinverse       :      0.000u      0.000s      0.001w     15 calls
New vector                  :      0.033u      0.000s      0.002w     15 calls
HF: Form C                  :      0.067u      0.000s      0.009w     16 calls
HF: Form D                  :      0.000u      0.000s      0.000w     16 calls
CCEOM                       :   2717.850u    177.350s    434.495w      1 calls
HBAR_EXTRA                  :      0.100u      0.033s      0.018w      1 calls
INIT GUESS                  :      0.283u      0.033s      0.134w      1 calls
SIGMA ALL                   :   2710.633u    176.183s    433.164w     68 calls
sigmaSS                     :      0.417u      0.033s      0.062w     68 calls
sigmaSD                     :      2.650u      0.467s      0.448w     68 calls
FSD                         :      0.433u      0.033s      0.070w     68 calls
WamefSD                     :      1.750u      0.433s      0.334w     68 calls
WmnieSD                     :      0.450u      0.000s      0.044w     68 calls
sigmaDS                     :     16.167u      1.400s      2.660w     68 calls
WmaijDS                     :      1.183u      0.083s      0.215w     68 calls
WabejDS                     :      3.717u      0.517s      0.626w     68 calls
WnmjeDS                     :      2.167u      0.117s      0.340w     68 calls
WbmfeDS                     :      9.100u      0.683s      1.478w     68 calls
sigmaDD                     :     67.650u     11.217s     11.877w     68 calls
FDD                         :      3.500u      0.233s      0.564w     68 calls
WmnijDD                     :      0.150u      0.000s      0.023w     68 calls
WabefDD                     :     54.667u     10.133s      9.750w     68 calls
WmbejDD                     :      3.333u      0.467s      0.580w     68 calls
WmnefDD                     :      6.000u      0.383s      0.958w     68 calls
cc3_HC1                     :    101.883u     18.283s     18.017w     37 calls
cc3_HC1ET1                  :    128.067u     22.133s     22.546w     37 calls
sigmaCC3                    :   2393.783u    122.650s    377.552w     37 calls
BUILD G                     :      1.283u      0.100s      0.190w     67 calls
CALC RES                    :      2.067u      0.483s      0.380w     67 calls
RESTART                     :      0.567u      0.100s      0.098w      7 calls

-----------------------------------------------------------
Total PK formation time     :      3.350u      0.050s      0.524w      1 calls
HF: Form H                  :      0.050u      0.000s      0.013w      1 calls
HF: Form S/X                :      0.017u      0.000s      0.001w      1 calls
HF: Guess                   :      0.000u      0.000s      0.001w      1 calls
HF: Form G                  :      3.183u      0.033s      0.488w     16 calls
| JK: D                     :      0.017u      0.000s      0.000w     16 calls
| JK: USO2AO                :      0.017u      0.000s      0.005w     16 calls
| JK: JK                    :      3.100u      0.033s      0.476w     16 calls
| | PK computes JK          :      3.100u      0.033s      0.476w     16 calls
| JK: AO2USO                :      0.050u      0.000s      0.006w     16 calls
HF: Form F                  :      0.033u      0.017s      0.002w     16 calls
HF: DIIS                    :      0.050u      0.000s      0.008w     16 calls
| DIISManager::add_entry    :      0.000u      0.000s      0.003w     16 calls
| DIISManager::extrapolate  :      0.033u      0.000s      0.005w     15 calls
| | bMatrix setup           :      0.000u      0.000s      0.002w     15 calls
| | bMatrix pseudoinverse   :      0.000u      0.000s      0.001w     15 calls
| | New vector              :      0.033u      0.000s      0.002w     15 calls
HF: Form C                  :      0.067u      0.000s      0.009w     16 calls
HF: Form D                  :      0.000u      0.000s      0.000w     16 calls
CCEOM                       :   2717.850u    177.350s    434.495w      1 calls
| HBAR_EXTRA                :      0.100u      0.033s      0.018w      1 calls
| INIT GUESS                :      0.283u      0.033s      0.134w      1 calls
| SIGMA ALL                 :   2710.633u    176.183s    433.164w     68 calls
| | sigmaSS                 :      0.417u      0.033s      0.062w     68 calls
| | sigmaSD                 :      2.650u      0.467s      0.448w     68 calls
| | | FSD                   :      0.433u      0.033s      0.070w     68 calls
| | | WamefSD               :      1.750u      0.433s      0.334w     68 calls
| | | WmnieSD               :      0.450u      0.000s      0.044w     68 calls
| | sigmaDS                 :     16.167u      1.400s      2.660w     68 calls
| | | WmaijDS               :      1.183u      0.083s      0.215w     68 calls
| | | WabejDS               :      3.717u      0.517s      0.626w     68 calls
| | | WnmjeDS               :      2.167u      0.117s      0.340w     68 calls
| | | WbmfeDS               :      9.100u      0.683s      1.478w     68 calls
| | sigmaDD                 :     67.650u     11.217s     11.877w     68 calls
| | | FDD                   :      3.500u      0.233s      0.564w     68 calls
| | | WmnijDD               :      0.150u      0.000s      0.023w     68 calls
| | | WabefDD               :     54.667u     10.133s      9.750w     68 calls
| | | WmbejDD               :      3.333u      0.467s      0.580w     68 calls
| | | WmnefDD               :      6.000u      0.383s      0.958w     68 calls
| | cc3_HC1                 :    101.883u     18.283s     18.017w     37 calls
| | cc3_HC1ET1              :    128.067u     22.133s     22.546w     37 calls
| | sigmaCC3                :   2393.783u    122.650s    377.552w     37 calls
| BUILD G                   :      1.283u      0.100s      0.190w     67 calls
| CALC RES                  :      2.067u      0.483s      0.380w     67 calls
| RESTART                   :      0.567u      0.100s      0.098w      7 calls

***********************************************************

Host: node10

Timers On : Sat Nov  5 10:19:26 2022
Timers Off: Sat Nov  5 10:28:46 2022

Wall Time:      559.93 seconds

Total PK formation time     :      3.750u      0.083s      0.590w      1 calls
HF: Form H                  :      0.033u      0.000s      0.004w      1 calls
HF: Form S/X                :      0.000u      0.000s      0.001w      1 calls
HF: Guess                   :      0.000u      0.000s      0.001w      1 calls
HF: Form G                  :      3.050u      0.067s      0.471w     16 calls
JK: D                       :      0.000u      0.000s      0.000w     16 calls
JK: USO2AO                  :      0.067u      0.000s      0.006w     16 calls
JK: JK                      :      2.967u      0.067s      0.455w     16 calls
PK computes JK              :      2.967u      0.067s      0.455w     16 calls
JK: AO2USO                  :      0.000u      0.000s      0.008w     16 calls
HF: Form F                  :      0.050u      0.000s      0.002w     16 calls
HF: DIIS                    :      0.000u      0.000s      0.007w     16 calls
DIISManager::add_entry      :      0.000u      0.000s      0.002w     16 calls
DIISManager::extrapolate    :      0.000u      0.000s      0.004w     15 calls
bMatrix setup               :      0.000u      0.000s      0.002w     15 calls
bMatrix pseudoinverse       :      0.000u      0.000s      0.001w     15 calls
New vector                  :      0.000u      0.000s      0.001w     15 calls
HF: Form C                  :      0.100u      0.000s      0.008w     16 calls
HF: Form D                  :      0.000u      0.000s      0.000w     16 calls
CCEOM                       :   2718.483u    177.300s    434.568w      1 calls
HBAR_EXTRA                  :      0.100u      0.000s      0.017w      1 calls
INIT GUESS                  :      0.233u      0.067s      0.129w      1 calls
SIGMA ALL                   :   2710.867u    175.967s    433.109w     68 calls
sigmaSS                     :      0.333u      0.100s      0.062w     68 calls
sigmaSD                     :      2.517u      0.500s      0.445w     68 calls
FSD                         :      0.333u      0.067s      0.070w     68 calls
WamefSD                     :      1.900u      0.400s      0.330w     68 calls
WmnieSD                     :      0.283u      0.033s      0.044w     68 calls
sigmaDS                     :     16.067u      1.483s      2.652w     68 calls
WmaijDS                     :      1.317u      0.150s      0.216w     68 calls
WabejDS                     :      3.717u      0.450s      0.625w     68 calls
WnmjeDS                     :      2.017u      0.200s      0.337w     68 calls
WbmfeDS                     :      9.017u      0.683s      1.474w     68 calls
sigmaDD                     :     66.183u     11.200s     11.594w     68 calls
FDD                         :      3.467u      0.317s      0.564w     68 calls
WmnijDD                     :      0.133u      0.033s      0.023w     68 calls
WabefDD                     :     53.167u      9.933s      9.456w     68 calls
WmbejDD                     :      3.400u      0.500s      0.589w     68 calls
WmnefDD                     :      6.017u      0.417s      0.961w     68 calls
cc3_HC1                     :    101.967u     18.133s     18.083w     37 calls
cc3_HC1ET1                  :    126.283u     22.150s     22.264w     37 calls
sigmaCC3                    :   2397.517u    122.400s    378.007w     37 calls
BUILD G                     :      1.200u      0.150s      0.188w     67 calls
CALC RES                    :      2.017u      0.500s      0.387w     67 calls
RESTART                     :      0.483u      0.150s      0.100w      7 calls

-----------------------------------------------------------
Total PK formation time     :      3.750u      0.083s      0.590w      1 calls
HF: Form H                  :      0.033u      0.000s      0.004w      1 calls
HF: Form S/X                :      0.000u      0.000s      0.001w      1 calls
HF: Guess                   :      0.000u      0.000s      0.001w      1 calls
HF: Form G                  :      3.050u      0.067s      0.471w     16 calls
| JK: D                     :      0.000u      0.000s      0.000w     16 calls
| JK: USO2AO                :      0.067u      0.000s      0.006w     16 calls
| JK: JK                    :      2.967u      0.067s      0.455w     16 calls
| | PK computes JK          :      2.967u      0.067s      0.455w     16 calls
| JK: AO2USO                :      0.000u      0.000s      0.008w     16 calls
HF: Form F                  :      0.050u      0.000s      0.002w     16 calls
HF: DIIS                    :      0.000u      0.000s      0.007w     16 calls
| DIISManager::add_entry    :      0.000u      0.000s      0.002w     16 calls
| DIISManager::extrapolate  :      0.000u      0.000s      0.004w     15 calls
| | bMatrix setup           :      0.000u      0.000s      0.002w     15 calls
| | bMatrix pseudoinverse   :      0.000u      0.000s      0.001w     15 calls
| | New vector              :      0.000u      0.000s      0.001w     15 calls
HF: Form C                  :      0.100u      0.000s      0.008w     16 calls
HF: Form D                  :      0.000u      0.000s      0.000w     16 calls
CCEOM                       :   2718.483u    177.300s    434.568w      1 calls
| HBAR_EXTRA                :      0.100u      0.000s      0.017w      1 calls
| INIT GUESS                :      0.233u      0.067s      0.129w      1 calls
| SIGMA ALL                 :   2710.867u    175.967s    433.109w     68 calls
| | sigmaSS                 :      0.333u      0.100s      0.062w     68 calls
| | sigmaSD                 :      2.517u      0.500s      0.445w     68 calls
| | | FSD                   :      0.333u      0.067s      0.070w     68 calls
| | | WamefSD               :      1.900u      0.400s      0.330w     68 calls
| | | WmnieSD               :      0.283u      0.033s      0.044w     68 calls
| | sigmaDS                 :     16.067u      1.483s      2.652w     68 calls
| | | WmaijDS               :      1.317u      0.150s      0.216w     68 calls
| | | WabejDS               :      3.717u      0.450s      0.625w     68 calls
| | | WnmjeDS               :      2.017u      0.200s      0.337w     68 calls
| | | WbmfeDS               :      9.017u      0.683s      1.474w     68 calls
| | sigmaDD                 :     66.183u     11.200s     11.594w     68 calls
| | | FDD                   :      3.467u      0.317s      0.564w     68 calls
| | | WmnijDD               :      0.133u      0.033s      0.023w     68 calls
| | | WabefDD               :     53.167u      9.933s      9.456w     68 calls
| | | WmbejDD               :      3.400u      0.500s      0.589w     68 calls
| | | WmnefDD               :      6.017u      0.417s      0.961w     68 calls
| | cc3_HC1                 :    101.967u     18.133s     18.083w     37 calls
| | cc3_HC1ET1              :    126.283u     22.150s     22.264w     37 calls
| | sigmaCC3                :   2397.517u    122.400s    378.007w     37 calls
| BUILD G                   :      1.200u      0.150s      0.188w     67 calls
| CALC RES                  :      2.017u      0.500s      0.387w     67 calls
| RESTART                   :      0.483u      0.150s      0.100w      7 calls

***********************************************************

Host: node18

Timers On : Sat Nov  5 10:19:20 2022
Timers Off: Sat Nov  5 10:28:45 2022

Wall Time:      565.07 seconds

Total PK formation time     :      3.367u      0.083s      0.517w      1 calls
HF: Form H                  :      0.033u      0.000s      0.005w      1 calls
HF: Form S/X                :      0.000u      0.000s      0.001w      1 calls
HF: Guess                   :      0.000u      0.000s      0.001w      1 calls
HF: Form G                  :      3.467u      0.067s      0.534w     17 calls
JK: D                       :      0.000u      0.000s      0.000w     17 calls
JK: USO2AO                  :      0.050u      0.000s      0.005w     17 calls
JK: JK                      :      3.383u      0.067s      0.521w     17 calls
PK computes JK              :      3.383u      0.067s      0.521w     17 calls
JK: AO2USO                  :      0.033u      0.000s      0.007w     17 calls
HF: Form F                  :      0.067u      0.000s      0.002w     17 calls
HF: DIIS                    :      0.100u      0.000s      0.012w     17 calls
DIISManager::add_entry      :      0.033u      0.000s      0.005w     17 calls
DIISManager::extrapolate    :      0.050u      0.000s      0.006w     16 calls
bMatrix setup               :      0.017u      0.000s      0.002w     16 calls
bMatrix pseudoinverse       :      0.017u      0.000s      0.001w     16 calls
New vector                  :      0.017u      0.000s      0.002w     16 calls
HF: Form C                  :      0.017u      0.017s      0.010w     17 calls
HF: Form D                  :      0.000u      0.000s      0.000w     17 calls
CCEOM                       :   2755.883u    177.300s    441.292w      1 calls
HBAR_EXTRA                  :      0.083u      0.033s      0.016w      1 calls
INIT GUESS                  :      0.300u      0.050s      0.128w      1 calls
SIGMA ALL                   :   2748.850u    176.017s    439.970w     68 calls
sigmaSS                     :      0.267u      0.033s      0.060w     68 calls
sigmaSD                     :      2.500u      0.367s      0.432w     68 calls
FSD                         :      0.517u      0.033s      0.071w     68 calls
WamefSD                     :      1.750u      0.333s      0.316w     68 calls
WmnieSD                     :      0.200u      0.000s      0.044w     68 calls
sigmaDS                     :     16.200u      1.450s      2.638w     68 calls
WmaijDS                     :      1.417u      0.133s      0.215w     68 calls
WabejDS                     :      3.667u      0.367s      0.617w     68 calls
WnmjeDS                     :      1.967u      0.300s      0.335w     68 calls
WbmfeDS                     :      9.133u      0.650s      1.469w     68 calls
sigmaDD                     :     66.383u     10.850s     11.606w     68 calls
FDD                         :      3.517u      0.217s      0.566w     68 calls
WmnijDD                     :      0.150u      0.017s      0.023w     68 calls
WabefDD                     :     53.200u      9.833s      9.472w     68 calls
WmbejDD                     :      3.367u      0.517s      0.581w     68 calls
WmnefDD                     :      6.150u      0.267s      0.961w     68 calls
cc3_HC1                     :    103.883u     18.000s     18.397w     37 calls
cc3_HC1ET1                  :    130.050u     22.133s     23.105w     37 calls
sigmaCC3                    :   2429.550u    123.183s    383.731w     37 calls
BUILD G                     :      1.067u      0.133s      0.189w     67 calls
CALC RES                    :      2.133u      0.450s      0.383w     67 calls
RESTART                     :      0.533u      0.100s      0.096w      7 calls

-----------------------------------------------------------
Total PK formation time     :      3.367u      0.083s      0.517w      1 calls
HF: Form H                  :      0.033u      0.000s      0.005w      1 calls
HF: Form S/X                :      0.000u      0.000s      0.001w      1 calls
HF: Guess                   :      0.000u      0.000s      0.001w      1 calls
HF: Form G                  :      3.467u      0.067s      0.534w     17 calls
| JK: D                     :      0.000u      0.000s      0.000w     17 calls
| JK: USO2AO                :      0.050u      0.000s      0.005w     17 calls
| JK: JK                    :      3.383u      0.067s      0.521w     17 calls
| | PK computes JK          :      3.383u      0.067s      0.521w     17 calls
| JK: AO2USO                :      0.033u      0.000s      0.007w     17 calls
HF: Form F                  :      0.067u      0.000s      0.002w     17 calls
HF: DIIS                    :      0.100u      0.000s      0.012w     17 calls
| DIISManager::add_entry    :      0.033u      0.000s      0.005w     17 calls
| DIISManager::extrapolate  :      0.050u      0.000s      0.006w     16 calls
| | bMatrix setup           :      0.017u      0.000s      0.002w     16 calls
| | bMatrix pseudoinverse   :      0.017u      0.000s      0.001w     16 calls
| | New vector              :      0.017u      0.000s      0.002w     16 calls
HF: Form C                  :      0.017u      0.017s      0.010w     17 calls
HF: Form D                  :      0.000u      0.000s      0.000w     17 calls
CCEOM                       :   2755.883u    177.300s    441.292w      1 calls
| HBAR_EXTRA                :      0.083u      0.033s      0.016w      1 calls
| INIT GUESS                :      0.300u      0.050s      0.128w      1 calls
| SIGMA ALL                 :   2748.850u    176.017s    439.970w     68 calls
| | sigmaSS                 :      0.267u      0.033s      0.060w     68 calls
| | sigmaSD                 :      2.500u      0.367s      0.432w     68 calls
| | | FSD                   :      0.517u      0.033s      0.071w     68 calls
| | | WamefSD               :      1.750u      0.333s      0.316w     68 calls
| | | WmnieSD               :      0.200u      0.000s      0.044w     68 calls
| | sigmaDS                 :     16.200u      1.450s      2.638w     68 calls
| | | WmaijDS               :      1.417u      0.133s      0.215w     68 calls
| | | WabejDS               :      3.667u      0.367s      0.617w     68 calls
| | | WnmjeDS               :      1.967u      0.300s      0.335w     68 calls
| | | WbmfeDS               :      9.133u      0.650s      1.469w     68 calls
| | sigmaDD                 :     66.383u     10.850s     11.606w     68 calls
[...]
FSD                         :      0.450u      0.083s      0.081w     68 calls
WamefSD                     :      2.317u      0.533s      0.420w     68 calls
WmnieSD                     :      0.450u      0.033s      0.061w     68 calls
sigmaDS                     :     20.133u      1.883s      3.384w     68 calls
WmaijDS                     :      1.600u      0.200s      0.277w     68 calls
WabejDS                     :      4.533u      0.533s      0.767w     68 calls
WnmjeDS                     :      3.267u      0.200s      0.603w     68 calls
WbmfeDS                     :     10.717u      0.933s      1.734w     68 calls
sigmaDD                     :     83.800u     13.633s     14.634w     68 calls
FDD                         :      4.183u      0.400s      0.682w     68 calls
WmnijDD                     :      0.167u      0.050s      0.038w     68 calls
WabefDD                     :     67.733u     11.633s     11.934w     68 calls
WmbejDD                     :      4.500u      0.850s      0.787w     68 calls
WmnefDD                     :      7.200u      0.700s      1.191w     68 calls
cc3_HC1                     :    133.817u     24.683s     23.786w     37 calls
cc3_HC1ET1                  :    184.117u     32.983s     32.922w     37 calls
sigmaCC3                    :   3024.317u    186.450s    483.045w     37 calls
BUILD G                     :      1.483u      0.167s      0.256w     67 calls
CALC RES                    :      3.617u      0.617s      0.642w     67 calls
RESTART                     :      0.867u      0.183s      0.159w      7 calls

-----------------------------------------------------------
Total PK formation time     :      3.683u      0.083s      0.579w      1 calls
HF: Form H                  :      0.017u      0.000s      0.005w      1 calls
HF: Form S/X                :      0.017u      0.000s      0.001w      1 calls
HF: Guess                   :      0.000u      0.000s      0.001w      1 calls
HF: Form G                  :      3.100u      0.067s      0.481w     16 calls
| JK: D                     :      0.000u      0.000s      0.000w     16 calls
| JK: USO2AO                :      0.000u      0.000s      0.006w     16 calls
| JK: JK                    :      3.050u      0.067s      0.463w     16 calls
| | PK computes JK          :      3.050u      0.067s      0.463w     16 calls
| JK: AO2USO                :      0.050u      0.000s      0.010w     16 calls
HF: Form F                  :      0.067u      0.000s      0.003w     16 calls
HF: DIIS                    :      0.117u      0.000s      0.013w     16 calls
| DIISManager::add_entry    :      0.000u      0.000s      0.004w     16 calls
| DIISManager::extrapolate  :      0.100u      0.000s      0.007w     15 calls
| | bMatrix setup           :      0.017u      0.000s      0.003w     15 calls
| | bMatrix pseudoinverse   :      0.033u      0.000s      0.002w     15 calls
| | New vector              :      0.050u      0.000s      0.002w     15 calls
HF: Form C                  :      0.050u      0.000s      0.011w     16 calls
HF: Form D                  :      0.000u      0.000s      0.000w     16 calls
CCEOM                       :   3460.617u    262.217s    560.470w      1 calls
| HBAR_EXTRA                :      0.117u      0.033s      0.022w      1 calls
| INIT GUESS                :      0.217u      0.117s      0.212w      1 calls
| SIGMA ALL                 :   3449.933u    260.350s    558.420w     68 calls
| | sigmaSS                 :      0.500u      0.050s      0.083w     68 calls
| | sigmaSD                 :      3.233u      0.667s      0.563w     68 calls
| | | FSD                   :      0.450u      0.083s      0.081w     68 calls
| | | WamefSD               :      2.317u      0.533s      0.420w     68 calls
| | | WmnieSD               :      0.450u      0.033s      0.061w     68 calls
| | sigmaDS                 :     20.133u      1.883s      3.384w     68 calls
| | | WmaijDS               :      1.600u      0.200s      0.277w     68 calls
| | | WabejDS               :      4.533u      0.533s      0.767w     68 calls
| | | WnmjeDS               :      3.267u      0.200s      0.603w     68 calls
| | | WbmfeDS               :     10.717u      0.933s      1.734w     68 calls
| | sigmaDD                 :     83.800u     13.633s     14.634w     68 calls
| | | FDD                   :      4.183u      0.400s      0.682w     68 calls
| | | WmnijDD               :      0.167u      0.050s      0.038w     68 calls
| | | WabefDD               :     67.733u     11.633s     11.934w     68 calls
| | | WmbejDD               :      4.500u      0.850s      0.787w     68 calls
| | | WmnefDD               :      7.200u      0.700s      1.191w     68 calls
| | cc3_HC1                 :    133.817u     24.683s     23.786w     37 calls
| | cc3_HC1ET1              :    184.117u     32.983s     32.922w     37 calls
| | sigmaCC3                :   3024.317u    186.450s    483.045w     37 calls
| BUILD G                   :      1.483u      0.167s      0.256w     67 calls
| CALC RES                  :      3.617u      0.617s      0.642w     67 calls
| RESTART                   :      0.867u      0.183s      0.159w      7 calls

***********************************************************

Host: node3

Timers On : Sat Nov  5 10:19:28 2022
Timers Off: Sat Nov  5 10:31:48 2022

Wall Time:      739.16 seconds

Total PK formation time     :      4.367u      0.083s      0.735w      1 calls
HF: Form H                  :      0.033u      0.000s      0.005w      1 calls
HF: Form S/X                :      0.000u      0.000s      0.001w      1 calls
HF: Guess                   :      0.000u      0.000s      0.001w      1 calls
HF: Form G                  :      3.417u      0.117s      0.529w     17 calls
JK: D                       :      0.000u      0.017s      0.000w     17 calls
JK: USO2AO                  :      0.117u      0.000s      0.009w     17 calls
JK: JK                      :      3.267u      0.100s      0.504w     17 calls
PK computes JK              :      3.267u      0.100s      0.504w     17 calls
JK: AO2USO                  :      0.033u      0.000s      0.014w     17 calls
HF: Form F                  :      0.050u      0.000s      0.003w     17 calls
HF: DIIS                    :      0.067u      0.033s      0.012w     17 calls
DIISManager::add_entry      :      0.033u      0.000s      0.003w     17 calls
DIISManager::extrapolate    :      0.017u      0.033s      0.007w     16 calls
bMatrix setup               :      0.000u      0.017s      0.003w     16 calls
bMatrix pseudoinverse       :      0.000u      0.000s      0.001w     16 calls
New vector                  :      0.017u      0.017s      0.002w     16 calls
HF: Form C                  :      0.033u      0.000s      0.011w     17 calls
HF: Form D                  :      0.000u      0.000s      0.001w     17 calls
CCEOM                       :   3550.917u    266.583s    573.367w      1 calls
HBAR_EXTRA                  :      0.133u      0.017s      0.022w      1 calls
INIT GUESS                  :      0.217u      0.167s      0.212w      1 calls
SIGMA ALL                   :   3540.050u    264.750s    571.271w     68 calls
sigmaSS                     :      0.600u      0.117s      0.087w     68 calls
sigmaSD                     :      3.233u      0.550s      0.574w     68 calls
FSD                         :      0.400u      0.050s      0.082w     68 calls
WamefSD                     :      2.467u      0.367s      0.428w     68 calls
WmnieSD                     :      0.367u      0.133s      0.062w     68 calls
sigmaDS                     :     19.900u      2.150s      3.286w     68 calls
WmaijDS                     :      1.733u      0.283s      0.284w     68 calls
WabejDS                     :      4.717u      0.617s      0.802w     68 calls
WnmjeDS                     :      2.500u      0.250s      0.414w     68 calls
WbmfeDS                     :     10.933u      1.000s      1.785w     68 calls
sigmaDD                     :     86.733u     14.533s     15.201w     68 calls
FDD                         :      4.250u      0.350s      0.700w     68 calls
WmnijDD                     :      0.283u      0.033s      0.039w     68 calls
WabefDD                     :     70.150u     12.767s     12.441w     68 calls
WmbejDD                     :      4.517u      0.700s      0.801w     68 calls
WmnefDD                     :      7.517u      0.683s      1.217w     68 calls
cc3_HC1                     :    140.033u     25.500s     24.816w     37 calls
cc3_HC1ET1                  :    187.383u     34.067s     33.251w     37 calls
sigmaCC3                    :   3102.133u    187.833s    494.054w     37 calls
BUILD G                     :      1.500u      0.133s      0.262w     67 calls
CALC RES                    :      3.717u      0.683s      0.661w     67 calls
RESTART                     :      0.883u      0.233s      0.163w      7 calls

-----------------------------------------------------------
Total PK formation time     :      4.367u      0.083s      0.735w      1 calls
HF: Form H                  :      0.033u      0.000s      0.005w      1 calls
HF: Form S/X                :      0.000u      0.000s      0.001w      1 calls
HF: Guess                   :      0.000u      0.000s      0.001w      1 calls
HF: Form G                  :      3.417u      0.117s      0.529w     17 calls
| JK: D                     :      0.000u      0.017s      0.000w     17 calls
| JK: USO2AO                :      0.117u      0.000s      0.009w     17 calls
| JK: JK                    :      3.267u      0.100s      0.504w     17 calls
| | PK computes JK          :      3.267u      0.100s      0.504w     17 calls
| JK: AO2USO                :      0.033u      0.000s      0.014w     17 calls
HF: Form F                  :      0.050u      0.000s      0.003w     17 calls
HF: DIIS                    :      0.067u      0.033s      0.012w     17 calls
| DIISManager::add_entry    :      0.033u      0.000s      0.003w     17 calls
| DIISManager::extrapolate  :      0.017u      0.033s      0.007w     16 calls
| | bMatrix setup           :      0.000u      0.017s      0.003w     16 calls
| | bMatrix pseudoinverse   :      0.000u      0.000s      0.001w     16 calls
| | New vector              :      0.017u      0.017s      0.002w     16 calls
HF: Form C                  :      0.033u      0.000s      0.011w     17 calls
HF: Form D                  :      0.000u      0.000s      0.001w     17 calls
CCEOM                       :   3550.917u    266.583s    573.367w      1 calls
| HBAR_EXTRA                :      0.133u      0.017s      0.022w      1 calls
| INIT GUESS                :      0.217u      0.167s      0.212w      1 calls
| SIGMA ALL                 :   3540.050u    264.750s    571.271w     68 calls
| | sigmaSS                 :      0.600u      0.117s      0.087w     68 calls
| | sigmaSD                 :      3.233u      0.550s      0.574w     68 calls
| | | FSD                   :      0.400u      0.050s      0.082w     68 calls
| | | WamefSD               :      2.467u      0.367s      0.428w     68 calls
| | | WmnieSD               :      0.367u      0.133s      0.062w     68 calls
| | sigmaDS                 :     19.900u      2.150s      3.286w     68 calls
| | | WmaijDS               :      1.733u      0.283s      0.284w     68 calls
| | | WabejDS               :      4.717u      0.617s      0.802w     68 calls
| | | WnmjeDS               :      2.500u      0.250s      0.414w     68 calls
| | | WbmfeDS               :     10.933u      1.000s      1.785w     68 calls
| | sigmaDD                 :     86.733u     14.533s     15.201w     68 calls
| | | FDD                   :      4.250u      0.350s      0.700w     68 calls
| | | WmnijDD               :      0.283u      0.033s      0.039w     68 calls
| | | WabefDD               :     70.150u     12.767s     12.441w     68 calls
| | | WmbejDD               :      4.517u      0.700s      0.801w     68 calls
| | | WmnefDD               :      7.517u      0.683s      1.217w     68 calls
| | cc3_HC1                 :    140.033u     25.500s     24.816w     37 calls
| | cc3_HC1ET1              :    187.383u     34.067s     33.251w     37 calls
| | sigmaCC3                :   3102.133u    187.833s    494.054w     37 calls
| BUILD G                   :      1.500u      0.133s      0.262w     67 calls
| CALC RES                  :      3.717u      0.683s      0.661w     67 calls
| RESTART                   :      0.883u      0.233s      0.163w      7 calls

***********************************************************

Host: node2

Timers On : Sat Nov  5 10:19:18 2022
Timers Off: Sat Nov  5 10:32:16 2022

Wall Time:      777.99 seconds

Total PK formation time     :      3.833u      0.117s      0.652w      1 calls
HF: Form H                  :      0.033u      0.000s      0.006w      1 calls
HF: Form S/X                :      0.000u      0.000s      0.001w      1 calls
HF: Guess                   :      0.017u      0.000s      0.001w      1 calls
HF: Form G                  :      3.750u      0.067s      0.586w     16 calls
JK: D                       :      0.017u      0.000s      0.000w     16 calls
JK: USO2AO                  :      0.033u      0.000s      0.008w     16 calls
JK: JK                      :      3.700u      0.067s      0.566w     16 calls
PK computes JK              :      3.700u      0.067s      0.566w     16 calls
JK: AO2USO                  :      0.000u      0.000s      0.010w     16 calls
HF: Form F                  :      0.033u      0.017s      0.003w     16 calls
HF: DIIS                    :      0.117u      0.033s      0.014w     16 calls
DIISManager::add_entry      :      0.017u      0.017s      0.004w     16 calls
DIISManager::extrapolate    :      0.083u      0.017s      0.008w     15 calls
bMatrix setup               :      0.083u      0.000s      0.003w     15 calls
bMatrix pseudoinverse       :      0.000u      0.000s      0.002w     15 calls
New vector                  :      0.000u      0.017s      0.003w     15 calls
HF: Form C                  :      0.067u      0.017s      0.012w     16 calls
HF: Form D                  :      0.000u      0.000s      0.001w     16 calls
CCEOM                       :   3729.867u    277.150s    601.741w      1 calls
HBAR_EXTRA                  :      0.067u      0.033s      0.021w      1 calls
INIT GUESS                  :      0.233u      0.167s      0.253w      1 calls
SIGMA ALL                   :   3718.283u    275.317s    599.529w     68 calls
sigmaSS                     :      0.450u      0.033s      0.084w     68 calls
sigmaSD                     :      3.733u      0.533s      0.647w     68 calls
FSD                         :      0.517u      0.067s      0.081w     68 calls
WamefSD                     :      2.883u      0.450s      0.506w     68 calls
WmnieSD                     :      0.300u      0.017s      0.059w     68 calls
sigmaDS                     :     20.750u      2.000s      3.400w     68 calls
WmaijDS                     :      1.900u      0.133s      0.280w     68 calls
WabejDS                     :      5.250u      0.717s      0.901w     68 calls
WnmjeDS                     :      2.450u      0.133s      0.404w     68 calls
WbmfeDS                     :     11.133u      1.017s      1.813w     68 calls
sigmaDD                     :     91.133u     14.517s     15.918w     68 calls
FDD                         :      4.217u      0.333s      0.686w     68 calls
WmnijDD                     :      0.183u      0.017s      0.039w     68 calls
WabefDD                     :     74.567u     12.800s     13.137w     68 calls
WmbejDD                     :      4.833u      0.683s      0.856w     68 calls
WmnefDD                     :      7.317u      0.683s      1.197w     68 calls
cc3_HC1                     :    148.617u     26.233s     26.253w     37 calls
cc3_HC1ET1                  :    195.617u     35.650s     34.814w     37 calls
sigmaCC3                    :   3257.983u    196.350s    518.411w     37 calls
BUILD G                     :      1.717u      0.233s      0.297w     67 calls
CALC RES                    :      3.883u      0.500s      0.680w     67 calls
RESTART                     :      0.967u      0.183s      0.166w      7 calls

-----------------------------------------------------------
Total PK formation time     :      3.833u      0.117s      0.652w      1 calls
HF: Form H                  :      0.033u      0.000s      0.006w      1 calls
HF: Form S/X                :      0.000u      0.000s      0.001w      1 calls
HF: Guess                   :      0.017u      0.000s      0.001w      1 calls
HF: Form G                  :      3.750u      0.067s      0.586w     16 calls
| JK: D                     :      0.017u      0.000s      0.000w     16 calls
| JK: USO2AO                :      0.033u      0.000s      0.008w     16 calls
| JK: JK                    :      3.700u      0.067s      0.566w     16 calls
| | PK computes JK          :      3.700u      0.067s      0.566w     16 calls
| JK: AO2USO                :      0.000u      0.000s      0.010w     16 calls
HF: Form F                  :      0.033u      0.017s      0.003w     16 calls
HF: DIIS                    :      0.117u      0.033s      0.014w     16 calls
| DIISManager::add_entry    :      0.017u      0.017s      0.004w     16 calls
| DIISManager::extrapolate  :      0.083u      0.017s      0.008w     15 calls
| | bMatrix setup           :      0.083u      0.000s      0.003w     15 calls
| | bMatrix pseudoinverse   :      0.000u      0.000s      0.002w     15 calls
| | New vector              :      0.000u      0.017s      0.003w     15 calls
HF: Form C                  :      0.067u      0.017s      0.012w     16 calls
HF: Form D                  :      0.000u      0.000s      0.001w     16 calls
CCEOM                       :   3729.867u    277.150s    601.741w      1 calls
| HBAR_EXTRA                :      0.067u      0.033s      0.021w      1 calls
| INIT GUESS                :      0.233u      0.167s      0.253w      1 calls
| SIGMA ALL                 :   3718.283u    275.317s    599.529w     68 calls
| | sigmaSS                 :      0.450u      0.033s      0.084w     68 calls
| | sigmaSD                 :      3.733u      0.533s      0.647w     68 calls
| | | FSD                   :      0.517u      0.067s      0.081w     68 calls
| | | WamefSD               :      2.883u      0.450s      0.506w     68 calls
| | | WmnieSD               :      0.300u      0.017s      0.059w     68 calls
| | sigmaDS                 :     20.750u      2.000s      3.400w     68 calls
| | | WmaijDS               :      1.900u      0.133s      0.280w     68 calls
| | | WabejDS               :      5.250u      0.717s      0.901w     68 calls
| | | WnmjeDS               :      2.450u      0.133s      0.404w     68 calls
| | | WbmfeDS               :     11.133u      1.017s      1.813w     68 calls
| | sigmaDD                 :     91.133u     14.517s     15.918w     68 calls
| | | FDD                   :      4.217u      0.333s      0.686w     68 calls
| | | WmnijDD               :      0.183u      0.017s      0.039w     68 calls
| | | WabefDD               :     74.567u     12.800s     13.137w     68 calls
| | | WmbejDD               :      4.833u      0.683s      0.856w     68 calls
| | | WmnefDD               :      7.317u      0.683s      1.197w     68 calls
| | cc3_HC1                 :    148.617u     26.233s     26.253w     37 calls
| | cc3_HC1ET1              :    195.617u     35.650s     34.814w     37 calls
| | sigmaCC3                :   3257.983u    196.350s    518.411w     37 calls
| BUILD G                   :      1.717u      0.233s      0.297w     67 calls
| CALC RES                  :      3.883u      0.500s      0.680w     67 calls
| RESTART                   :      0.967u      0.183s      0.166w      7 calls

***********************************************************
