
Host: node10

Timers On : Sat Nov  5 10:19:26 2022
Timers Off: Sat Nov  5 10:27:14 2022

Wall Time:      468.57 seconds

Total PK formation time     :      3.250u      0.083s      0.512w      1 calls
HF: Form H                  :      0.017u      0.000s      0.005w      1 calls
HF: Form S/X                :      0.000u      0.000s      0.001w      1 calls
HF: Guess                   :      0.000u      0.000s      0.001w      1 calls
HF: Form G                  :      3.183u      0.050s      0.477w     16 calls
JK: D                       :      0.050u      0.000s      0.000w     16 calls
JK: USO2AO                  :      0.067u      0.000s      0.007w     16 calls
JK: JK                      :      3.033u      0.050s      0.461w     16 calls
PK computes JK              :      3.033u      0.050s      0.461w     16 calls
JK: AO2USO                  :      0.033u      0.000s      0.008w     16 calls
HF: Form F                  :      0.000u      0.000s      0.002w     16 calls
HF: DIIS                    :      0.050u      0.000s      0.008w     16 calls
DIISManager::add_entry      :      0.000u      0.000s      0.002w     16 calls
DIISManager::extrapolate    :      0.050u      0.000s      0.004w     15 calls
bMatrix setup               :      0.033u      0.000s      0.002w     15 calls
bMatrix pseudoinverse       :      0.017u      0.000s      0.001w     15 calls
New vector                  :      0.000u      0.000s      0.001w     15 calls
HF: Form C                  :      0.050u      0.000s      0.008w     16 calls
HF: Form D                  :      0.000u      0.000s      0.000w     16 calls
CCEOM                       :   2250.000u    129.617s    357.231w      1 calls
HBAR_EXTRA                  :      0.083u      0.017s      0.015w      1 calls
INIT GUESS                  :      0.400u      0.033s      0.133w      1 calls
SIGMA ALL                   :   2242.817u    128.517s    355.931w     68 calls
sigmaSS                     :      0.200u      0.000s      0.041w     68 calls
sigmaSD                     :      2.683u      0.333s      0.447w     68 calls
FSD                         :      0.283u      0.067s      0.055w     68 calls
WamefSD                     :      2.050u      0.267s      0.357w     68 calls
WmnieSD                     :      0.333u      0.000s      0.035w     68 calls
sigmaDS                     :     12.567u      1.083s      2.051w     68 calls
WmaijDS                     :      0.917u      0.017s      0.151w     68 calls
WabejDS                     :      3.500u      0.433s      0.576w     68 calls
WnmjeDS                     :      1.383u      0.083s      0.250w     68 calls
WbmfeDS                     :      6.767u      0.550s      1.073w     68 calls
sigmaDD                     :     55.300u      8.683s      9.611w     68 calls
FDD                         :      2.467u      0.217s      0.416w     68 calls
WmnijDD                     :      0.133u      0.017s      0.019w     68 calls
WabefDD                     :     45.183u      7.700s      7.946w     68 calls
WmbejDD                     :      3.383u      0.467s      0.574w     68 calls
WmnefDD                     :      4.133u      0.283s      0.655w     68 calls
cc3_HC1                     :     86.617u     14.600s     15.184w     37 calls
cc3_HC1ET1                  :    110.617u     18.317s     19.458w     37 calls
sigmaCC3                    :   1974.817u     85.500s    309.137w     37 calls
BUILD G                     :      1.400u      0.067s      0.233w     67 calls
CALC RES                    :      2.000u      0.533s      0.358w     67 calls
RESTART                     :      0.467u      0.117s      0.090w      7 calls

-----------------------------------------------------------
Total PK formation time     :      3.250u      0.083s      0.512w      1 calls
HF: Form H                  :      0.017u      0.000s      0.005w      1 calls
HF: Form S/X                :      0.000u      0.000s      0.001w      1 calls
HF: Guess                   :      0.000u      0.000s      0.001w      1 calls
HF: Form G                  :      3.183u      0.050s      0.477w     16 calls
| JK: D                     :      0.050u      0.000s      0.000w     16 calls
| JK: USO2AO                :      0.067u      0.000s      0.007w     16 calls
| JK: JK                    :      3.033u      0.050s      0.461w     16 calls
| | PK computes JK          :      3.033u      0.050s      0.461w     16 calls
| JK: AO2USO                :      0.033u      0.000s      0.008w     16 calls
HF: Form F                  :      0.000u      0.000s      0.002w     16 calls
HF: DIIS                    :      0.050u      0.000s      0.008w     16 calls
| DIISManager::add_entry    :      0.000u      0.000s      0.002w     16 calls
| DIISManager::extrapolate  :      0.050u      0.000s      0.004w     15 calls
| | bMatrix setup           :      0.033u      0.000s      0.002w     15 calls
| | bMatrix pseudoinverse   :      0.017u      0.000s      0.001w     15 calls
| | New vector              :      0.000u      0.000s      0.001w     15 calls
HF: Form C                  :      0.050u      0.000s      0.008w     16 calls
HF: Form D                  :      0.000u      0.000s      0.000w     16 calls
CCEOM                       :   2250.000u    129.617s    357.231w      1 calls
| HBAR_EXTRA                :      0.083u      0.017s      0.015w      1 calls
| INIT GUESS                :      0.400u      0.033s      0.133w      1 calls
| SIGMA ALL                 :   2242.817u    128.517s    355.931w     68 calls
| | sigmaSS                 :      0.200u      0.000s      0.041w     68 calls
| | sigmaSD                 :      2.683u      0.333s      0.447w     68 calls
| | | FSD                   :      0.283u      0.067s      0.055w     68 calls
| | | WamefSD               :      2.050u      0.267s      0.357w     68 calls
| | | WmnieSD               :      0.333u      0.000s      0.035w     68 calls
| | sigmaDS                 :     12.567u      1.083s      2.051w     68 calls
| | | WmaijDS               :      0.917u      0.017s      0.151w     68 calls
| | | WabejDS               :      3.500u      0.433s      0.576w     68 calls
| | | WnmjeDS               :      1.383u      0.083s      0.250w     68 calls
| | | WbmfeDS               :      6.767u      0.550s      1.073w     68 calls
| | sigmaDD                 :     55.300u      8.683s      9.611w     68 calls
| | | FDD                   :      2.467u      0.217s      0.416w     68 calls
| | | WmnijDD               :      0.133u      0.017s      0.019w     68 calls
| | | WabefDD               :     45.183u      7.700s      7.946w     68 calls
| | | WmbejDD               :      3.383u      0.467s      0.574w     68 calls
| | | WmnefDD               :      4.133u      0.283s      0.655w     68 calls
| | cc3_HC1                 :     86.617u     14.600s     15.184w     37 calls
| | cc3_HC1ET1              :    110.617u     18.317s     19.458w     37 calls
| | sigmaCC3                :   1974.817u     85.500s    309.137w     37 calls
| BUILD G                   :      1.400u      0.067s      0.233w     67 calls
| CALC RES                  :      2.000u      0.533s      0.358w     67 calls
| RESTART                   :      0.467u      0.117s      0.090w      7 calls

***********************************************************

Host: node16

Timers On : Sat Nov  5 10:19:14 2022
Timers Off: Sat Nov  5 10:27:15 2022

Wall Time:      481.12 seconds

Total PK formation time     :      2.933u      0.083s      0.474w      1 calls
HF: Form H                  :      0.017u      0.000s      0.005w      1 calls
HF: Form S/X                :      0.000u      0.000s      0.001w      1 calls
HF: Guess                   :      0.017u      0.000s      0.001w      1 calls
HF: Form G                  :      2.967u      0.067s      0.466w     16 calls
JK: D                       :      0.000u      0.000s      0.000w     16 calls
JK: USO2AO                  :      0.000u      0.000s      0.006w     16 calls
JK: JK                      :      2.933u      0.067s      0.451w     16 calls
PK computes JK              :      2.933u      0.067s      0.451w     16 calls
JK: AO2USO                  :      0.017u      0.000s      0.008w     16 calls
HF: Form F                  :      0.050u      0.000s      0.002w     16 calls
HF: DIIS                    :      0.050u      0.000s      0.008w     16 calls
DIISManager::add_entry      :      0.017u      0.000s      0.003w     16 calls
DIISManager::extrapolate    :      0.033u      0.000s      0.004w     15 calls
bMatrix setup               :      0.000u      0.000s      0.002w     15 calls
bMatrix pseudoinverse       :      0.000u      0.000s      0.001w     15 calls
New vector                  :      0.033u      0.000s      0.001w     15 calls
HF: Form C                  :      0.083u      0.000s      0.008w     16 calls
HF: Form D                  :      0.000u      0.000s      0.000w     16 calls
CCEOM                       :   2295.533u    142.317s    365.842w      1 calls
HBAR_EXTRA                  :      0.083u      0.017s      0.016w      1 calls
INIT GUESS                  :      0.267u      0.067s      0.136w      1 calls
SIGMA ALL                   :   2289.100u    141.100s    364.597w     68 calls
sigmaSS                     :      0.317u      0.033s      0.042w     68 calls
sigmaSD                     :      2.417u      0.483s      0.436w     68 calls
FSD                         :      0.400u      0.017s      0.054w     68 calls
WamefSD                     :      1.817u      0.433s      0.346w     68 calls
WmnieSD                     :      0.200u      0.033s      0.035w     68 calls
sigmaDS                     :     12.350u      1.250s      2.045w     68 calls
WmaijDS                     :      0.950u      0.133s      0.152w     68 calls
WabejDS                     :      3.333u      0.400s      0.566w     68 calls
WnmjeDS                     :      1.467u      0.167s      0.248w     68 calls
WbmfeDS                     :      6.600u      0.550s      1.079w     68 calls
sigmaDD                     :     56.217u      9.183s      9.810w     68 calls
FDD                         :      2.550u      0.267s      0.412w     68 calls
WmnijDD                     :      0.150u      0.017s      0.019w     68 calls
WabefDD                     :     45.983u      8.100s      8.139w     68 calls
WmbejDD                     :      3.433u      0.450s      0.581w     68 calls
WmnefDD                     :      4.083u      0.350s      0.657w     68 calls
cc3_HC1                     :     88.150u     15.400s     15.527w     37 calls
cc3_HC1ET1                  :    110.967u     18.967s     19.494w     37 calls
sigmaCC3                    :   2018.683u     95.783s    317.242w     37 calls
BUILD G                     :      1.183u      0.100s      0.200w     67 calls
CALC RES                    :      1.783u      0.500s      0.347w     67 calls
RESTART                     :      0.467u      0.133s      0.089w      7 calls

-----------------------------------------------------------
Total PK formation time     :      2.933u      0.083s      0.474w      1 calls
HF: Form H                  :      0.017u      0.000s      0.005w      1 calls
HF: Form S/X                :      0.000u      0.000s      0.001w      1 calls
HF: Guess                   :      0.017u      0.000s      0.001w      1 calls
HF: Form G                  :      2.967u      0.067s      0.466w     16 calls
| JK: D                     :      0.000u      0.000s      0.000w     16 calls
| JK: USO2AO                :      0.000u      0.000s      0.006w     16 calls
| JK: JK                    :      2.933u      0.067s      0.451w     16 calls
| | PK computes JK          :      2.933u      0.067s      0.451w     16 calls
| JK: AO2USO                :      0.017u      0.000s      0.008w     16 calls
HF: Form F                  :      0.050u      0.000s      0.002w     16 calls
HF: DIIS                    :      0.050u      0.000s      0.008w     16 calls
| DIISManager::add_entry    :      0.017u      0.000s      0.003w     16 calls
| DIISManager::extrapolate  :      0.033u      0.000s      0.004w     15 calls
| | bMatrix setup           :      0.000u      0.000s      0.002w     15 calls
| | bMatrix pseudoinverse   :      0.000u      0.000s      0.001w     15 calls
| | New vector              :      0.033u      0.000s      0.001w     15 calls
HF: Form C                  :      0.083u      0.000s      0.008w     16 calls
HF: Form D                  :      0.000u      0.000s      0.000w     16 calls
CCEOM                       :   2295.533u    142.317s    365.842w      1 calls
| HBAR_EXTRA                :      0.083u      0.017s      0.016w      1 calls
| INIT GUESS                :      0.267u      0.067s      0.136w      1 calls
| SIGMA ALL                 :   2289.100u    141.100s    364.597w     68 calls
| | sigmaSS                 :      0.317u      0.033s      0.042w     68 calls
| | sigmaSD                 :      2.417u      0.483s      0.436w     68 calls
| | | FSD                   :      0.400u      0.017s      0.054w     68 calls
| | | WamefSD               :      1.817u      0.433s      0.346w     68 calls
| | | WmnieSD               :      0.200u      0.033s      0.035w     68 calls
| | sigmaDS                 :     12.350u      1.250s      2.045w     68 calls
| | | WmaijDS               :      0.950u      0.133s      0.152w     68 calls
| | | WabejDS               :      3.333u      0.400s      0.566w     68 calls
| | | WnmjeDS               :      1.467u      0.167s      0.248w     68 calls
| | | WbmfeDS               :      6.600u      0.550s      1.079w     68 calls
| | sigmaDD                 :     56.217u      9.183s      9.810w     68 calls
| | | FDD                   :      2.550u      0.267s      0.412w     68 calls
| | | WmnijDD               :      0.150u      0.017s      0.019w     68 calls
| | | WabefDD               :     45.983u      8.100s      8.139w     68 calls
| | | WmbejDD               :      3.433u      0.450s      0.581w     68 calls
| | | WmnefDD               :      4.083u      0.350s      0.657w     68 calls
| | cc3_HC1                 :     88.150u     15.400s     15.527w     37 calls
| | cc3_HC1ET1              :    110.967u     18.967s     19.494w     37 calls
| | sigmaCC3                :   2018.683u     95.783s    317.242w     37 calls
| BUILD G                   :      1.183u      0.100s      0.200w     67 calls
| CALC RES                  :      1.783u      0.500s      0.347w     67 calls
| RESTART                   :      0.467u      0.133s      0.089w      7 calls

***********************************************************

Host: node15

Timers On : Sat Nov  5 10:19:24 2022
Timers Off: Sat Nov  5 10:27:32 2022

Wall Time:      488.09 seconds

Total PK formation time     :      2.683u      0.033s      0.405w      1 calls
HF: Form H                  :      0.083u      0.000s      0.017w      1 calls
HF: Form S/X                :      0.000u      0.000s      0.001w      1 calls
HF: Guess                   :      0.017u      0.000s      0.001w      1 calls
HF: Form G                  :      3.150u      0.067s      0.484w     16 calls
JK: D                       :      0.000u      0.000s      0.000w     16 calls
JK: USO2AO                  :      0.033u      0.000s      0.010w     16 calls
JK: JK                      :      3.050u      0.067s      0.465w     16 calls
PK computes JK              :      3.050u      0.067s      0.465w     16 calls
JK: AO2USO                  :      0.067u      0.000s      0.008w     16 calls
HF: Form F                  :      0.033u      0.000s      0.002w     16 calls
HF: DIIS                    :      0.017u      0.000s      0.008w     16 calls
DIISManager::add_entry      :      0.017u      0.000s      0.003w     16 calls
DIISManager::extrapolate    :      0.000u      0.000s      0.004w     15 calls
bMatrix setup               :      0.000u      0.000s      0.002w     15 calls
bMatrix pseudoinverse       :      0.000u      0.000s      0.001w     15 calls
New vector                  :      0.000u      0.000s      0.001w     15 calls
HF: Form C                  :      0.067u      0.000s      0.008w     16 calls
HF: Form D                  :      0.017u      0.000s      0.000w     16 calls
CCEOM                       :   2355.083u    138.567s    374.558w      1 calls
HBAR_EXTRA                  :      0.083u      0.017s      0.015w      1 calls
INIT GUESS                  :      0.367u      0.050s      0.129w      1 calls
SIGMA ALL                   :   2347.983u    137.583s    373.257w     68 calls
sigmaSS                     :      0.217u      0.017s      0.043w     68 calls
sigmaSD                     :      2.883u      0.417s      0.469w     68 calls
FSD                         :      0.400u      0.033s      0.054w     68 calls
WamefSD                     :      2.183u      0.367s      0.379w     68 calls
WmnieSD                     :      0.283u      0.017s      0.036w     68 calls
sigmaDS                     :     12.800u      1.217s      2.116w     68 calls
WmaijDS                     :      0.783u      0.117s      0.153w     68 calls
WabejDS                     :      3.700u      0.450s      0.606w     68 calls
WnmjeDS                     :      1.517u      0.167s      0.251w     68 calls
WbmfeDS                     :      6.800u      0.483s      1.105w     68 calls
sigmaDD                     :     57.633u      8.950s      9.982w     68 calls
FDD                         :      2.650u      0.233s      0.417w     68 calls
WmnijDD                     :      0.067u      0.000s      0.019w     68 calls
WabefDD                     :     47.417u      7.950s      8.298w     68 calls
WmbejDD                     :      3.333u      0.433s      0.582w     68 calls
WmnefDD                     :      4.133u      0.333s      0.665w     68 calls
cc3_HC1                     :     93.433u     15.267s     16.312w     37 calls
cc3_HC1ET1                  :    116.033u     19.183s     20.315w     37 calls
sigmaCC3                    :   2064.983u     92.533s    324.018w     37 calls
BUILD G                     :      1.400u      0.150s      0.228w     67 calls
CALC RES                    :      2.033u      0.317s      0.359w     67 calls
RESTART                     :      0.467u      0.100s      0.091w      7 calls

-----------------------------------------------------------
Total PK formation time     :      2.683u      0.033s      0.405w      1 calls
HF: Form H                  :      0.083u      0.000s      0.017w      1 calls
HF: Form S/X                :      0.000u      0.000s      0.001w      1 calls
HF: Guess                   :      0.017u      0.000s      0.001w      1 calls
HF: Form G                  :      3.150u      0.067s      0.484w     16 calls
| JK: D                     :      0.000u      0.000s      0.000w     16 calls
| JK: USO2AO                :      0.033u      0.000s      0.010w     16 calls
| JK: JK                    :      3.050u      0.067s      0.465w     16 calls
| | PK computes JK          :      3.050u      0.067s      0.465w     16 calls
| JK: AO2USO                :      0.067u      0.000s      0.008w     16 calls
HF: Form F                  :      0.033u      0.000s      0.002w     16 calls
HF: DIIS                    :      0.017u      0.000s      0.008w     16 calls
| DIISManager::add_entry    :      0.017u      0.000s      0.003w     16 calls
| DIISManager::extrapolate  :      0.000u      0.000s      0.004w     15 calls
| | bMatrix setup           :      0.000u      0.000s      0.002w     15 calls
| | bMatrix pseudoinverse   :      0.000u      0.000s      0.001w     15 calls
| | New vector              :      0.000u      0.000s      0.001w     15 calls
HF: Form C                  :      0.067u      0.000s      0.008w     16 calls
HF: Form D                  :      0.017u      0.000s      0.000w     16 calls
CCEOM                       :   2355.083u    138.567s    374.558w      1 calls
| HBAR_EXTRA                :      0.083u      0.017s      0.015w      1 calls
| INIT GUESS                :      0.367u      0.050s      0.129w      1 calls
| SIGMA ALL                 :   2347.983u    137.583s    373.257w     68 calls
| | sigmaSS                 :      0.217u      0.017s      0.043w     68 calls
| | sigmaSD                 :      2.883u      0.417s      0.469w     68 calls
| | | FSD                   :      0.400u      0.033s      0.054w     68 calls
| | | WamefSD               :      2.183u      0.367s      0.379w     68 calls
| | | WmnieSD               :      0.283u      0.017s      0.036w     68 calls
| | sigmaDS                 :     12.800u      1.217s      2.116w     68 calls
| | | WmaijDS               :      0.783u      0.117s      0.153w     68 calls
| | | WabejDS               :      3.700u      0.450s      0.606w     68 calls
| | | WnmjeDS               :      1.517u      0.167s      0.251w     68 calls
| | | WbmfeDS               :      6.800u      0.483s      1.105w     68 calls
| | sigmaDD                 :     57.633u      8.950s      9.982w     68 calls
| | | FDD                   :      2.650u      0.233s      0.417w     68 calls
| | | WmnijDD               :      0.067u      0.000s      0.019w     68 calls
| | | WabefDD               :     47.417u      7.950s      8.298w     68 calls
| | | WmbejDD               :      3.333u      0.433s      0.582w     68 calls
| | | WmnefDD               :      4.133u      0.333s      0.665w     68 calls
| | cc3_HC1                 :     93.433u     15.267s     16.312w     37 calls
| | cc3_HC1ET1              :    116.033u     19.183s     20.315w     37 calls
| | sigmaCC3                :   2064.983u     92.533s    324.018w     37 calls
| BUILD G                   :      1.400u      0.150s      0.228w     67 calls
| CALC RES                  :      2.033u      0.317s      0.359w     67 calls
| RESTART                   :      0.467u      0.100s      0.091w      7 calls

***********************************************************

Host: node20

Timers On : Sat Nov  5 10:19:24 2022
Timers Off: Sat Nov  5 10:27:48 2022

Wall Time:      504.33 seconds

Total PK formation time     :      3.533u      0.050s      0.539w      1 calls
HF: Form H                  :      0.017u      0.000s      0.004w      1 calls
HF: Form S/X                :      0.017u      0.000s      0.001w      1 calls
HF: Guess                   :      0.000u      0.000s      0.001w      1 calls
HF: Form G                  :      3.267u      0.100s      0.507w     16 calls
JK: D                       :      0.000u      0.000s      0.000w     16 calls
JK: USO2AO                  :      0.067u      0.000s      0.007w     16 calls
JK: JK                      :      3.183u      0.100s      0.491w     16 calls
PK computes JK              :      3.183u      0.100s      0.491w     16 calls
JK: AO2USO                  :      0.017u      0.000s      0.008w     16 calls
HF: Form F                  :      0.017u      0.000s      0.002w     16 calls
HF: DIIS                    :      0.083u      0.000s      0.009w     16 calls
DIISManager::add_entry      :      0.033u      0.000s      0.002w     16 calls
DIISManager::extrapolate    :      0.050u      0.000s      0.005w     15 calls
bMatrix setup               :      0.033u      0.000s      0.002w     15 calls
bMatrix pseudoinverse       :      0.017u      0.000s      0.001w     15 calls
New vector                  :      0.000u      0.000s      0.002w     15 calls
HF: Form C                  :      0.033u      0.017s      0.009w     16 calls
HF: Form D                  :      0.000u      0.000s      0.000w     16 calls
CCEOM                       :   2364.033u    148.683s    378.699w      1 calls
HBAR_EXTRA                  :      0.083u      0.017s      0.014w      1 calls
INIT GUESS                  :      0.317u      0.067s      0.128w      1 calls
SIGMA ALL                   :   2356.117u    147.667s    377.029w     68 calls
sigmaSS                     :      0.333u      0.000s      0.042w     68 calls
sigmaSD                     :      2.600u      0.417s      0.471w     68 calls
FSD                         :      0.350u      0.050s      0.056w     68 calls
WamefSD                     :      2.083u      0.367s      0.378w     68 calls
WmnieSD                     :      0.150u      0.000s      0.036w     68 calls
sigmaDS                     :     13.050u      1.300s      2.127w     68 calls
WmaijDS                     :      1.000u      0.167s      0.156w     68 calls
WabejDS                     :      3.417u      0.417s      0.591w     68 calls
WnmjeDS                     :      1.700u      0.150s      0.254w     68 calls
WbmfeDS                     :      6.917u      0.567s      1.125w     68 calls
sigmaDD                     :     58.300u      9.850s     10.211w     68 calls
FDD                         :      2.550u      0.233s      0.422w     68 calls
WmnijDD                     :      0.167u      0.017s      0.019w     68 calls
WabefDD                     :     47.883u      8.633s      8.499w     68 calls
WmbejDD                     :      3.483u      0.600s      0.593w     68 calls
WmnefDD                     :      4.217u      0.367s      0.676w     68 calls
cc3_HC1                     :     94.667u     16.983s     16.763w     37 calls
cc3_HC1ET1                  :    116.950u     20.700s     20.659w     37 calls
sigmaCC3                    :   2070.217u     98.417s    326.755w     37 calls
BUILD G                     :      1.233u      0.067s      0.210w     67 calls
CALC RES                    :      2.083u      0.317s      0.356w     67 calls
RESTART                     :      0.500u      0.100s      0.092w      7 calls

-----------------------------------------------------------
Total PK formation time     :      3.533u      0.050s      0.539w      1 calls
HF: Form H                  :      0.017u      0.000s      0.004w      1 calls
HF: Form S/X                :      0.017u      0.000s      0.001w      1 calls
HF: Guess                   :      0.000u      0.000s      0.001w      1 calls
HF: Form G                  :      3.267u      0.100s      0.507w     16 calls
| JK: D                     :      0.000u      0.000s      0.000w     16 calls
| JK: USO2AO                :      0.067u      0.000s      0.007w     16 calls
| JK: JK                    :      3.183u      0.100s      0.491w     16 calls
| | PK computes JK          :      3.183u      0.100s      0.491w     16 calls
| JK: AO2USO                :      0.017u      0.000s      0.008w     16 calls
HF: Form F                  :      0.017u      0.000s      0.002w     16 calls
HF: DIIS                    :      0.083u      0.000s      0.009w     16 calls
| DIISManager::add_entry    :      0.033u      0.000s      0.002w     16 calls
| DIISManager::extrapolate  :      0.050u      0.000s      0.005w     15 calls
| | bMatrix setup           :      0.033u      0.000s      0.002w     15 calls
| | bMatrix pseudoinverse   :      0.017u      0.000s      0.001w     15 calls
| | New vector              :      0.000u      0.000s      0.002w     15 calls
HF: Form C                  :      0.033u      0.017s      0.009w     16 calls
HF: Form D                  :      0.000u      0.000s      0.000w     16 calls
CCEOM                       :   2364.033u    148.683s    378.699w      1 calls
| HBAR_EXTRA                :      0.083u      0.017s      0.014w      1 calls
| INIT GUESS                :      0.317u      0.067s      0.128w      1 calls
| SIGMA ALL                 :   2356.117u    147.667s    377.029w     68 calls
| | sigmaSS                 :      0.333u      0.000s      0.042w     68 calls
| | sigmaSD                 :      2.600u      0.417s      0.471w     68 calls
| | | FSD                   :      0.350u      0.050s      0.056w     68 calls
| | | WamefSD               :      2.083u      0.367s      0.378w     68 calls
| | | WmnieSD               :      0.150u      0.000s      0.036w     68 calls
| | sigmaDS                 :     13.050u      1.300s      2.127w     68 calls
| | | WmaijDS               :      1.000u      0.167s      0.156w     68 calls
| | | WabejDS               :      3.417u      0.417s      0.591w     68 calls
| | | WnmjeDS               :      1.700u      0.150s      0.254w     68 calls
| | | WbmfeDS               :      6.917u      0.567s      1.125w     68 calls
| | sigmaDD                 :     58.300u      9.850s     10.211w     68 calls
| | | FDD                   :      2.550u      0.233s      0.422w     68 calls
| | | WmnijDD               :      0.167u      0.017s      0.019w     68 calls
| | | WabefDD               :     47.883u      8.633s      8.499w     68 calls
| | | WmbejDD               :      3.483u      0.600s      0.593w     68 calls
| | | WmnefDD               :      4.217u      0.367s      0.676w     68 calls
| | cc3_HC1                 :     94.667u     16.983s     16.763w     37 calls
| | cc3_HC1ET1              :    116.950u     20.700s     20.659w     37 calls
| | sigmaCC3                :   2070.217u     98.417s    326.755w     37 calls
| BUILD G                   :      1.233u      0.067s      0.210w     67 calls
| CALC RES                  :      2.083u      0.317s      0.356w     67 calls
| RESTART                   :      0.500u      0.100s      0.092w      7 calls

***********************************************************

Host: node10

Timers On : Sat Nov  5 10:19:26 2022
Timers Off: Sat Nov  5 10:28:22 2022

Wall Time:      536.25 seconds

Total PK formation time     :      3.667u      0.083s      0.573w      1 calls
HF: Form H                  :      0.033u      0.000s      0.005w      1 calls
HF: Form S/X                :      0.000u      0.000s      0.001w      1 calls
HF: Guess                   :      0.000u      0.000s      0.001w      1 calls
HF: Form G                  :      3.450u      0.083s      0.533w     17 calls
JK: D                       :      0.000u      0.000s      0.000w     17 calls
JK: USO2AO                  :      0.000u      0.000s      0.005w     17 calls
JK: JK                      :      3.433u      0.083s      0.520w     17 calls
PK computes JK              :      3.433u      0.083s      0.520w     17 calls
JK: AO2USO                  :      0.017u      0.000s      0.007w     17 calls
HF: Form F                  :      0.000u      0.000s      0.002w     17 calls
HF: DIIS                    :      0.050u      0.000s      0.009w     17 calls
DIISManager::add_entry      :      0.000u      0.000s      0.003w     17 calls
DIISManager::extrapolate    :      0.050u      0.000s      0.005w     16 calls
bMatrix setup               :      0.033u      0.000s      0.002w     16 calls
bMatrix pseudoinverse       :      0.000u      0.000s      0.001w     16 calls
New vector                  :      0.017u      0.000s      0.002w     16 calls
HF: Form C                  :      0.117u      0.000s      0.010w     17 calls
HF: Form D                  :      0.000u      0.000s      0.000w     17 calls
CCEOM                       :   2607.117u    160.333s    415.327w      1 calls
HBAR_EXTRA                  :      0.083u      0.000s      0.015w      1 calls
INIT GUESS                  :      0.350u      0.050s      0.131w      1 calls
SIGMA ALL                   :   2599.633u    159.117s    413.958w     68 calls
sigmaSS                     :      0.217u      0.017s      0.043w     68 calls
sigmaSD                     :      2.950u      0.367s      0.498w     68 calls
FSD                         :      0.283u      0.033s      0.054w     68 calls
WamefSD                     :      2.400u      0.333s      0.406w     68 calls
WmnieSD                     :      0.267u      0.000s      0.037w     68 calls
sigmaDS                     :     13.167u      1.183s      2.155w     68 calls
WmaijDS                     :      0.883u      0.117s      0.155w     68 calls
WabejDS                     :      3.883u      0.400s      0.651w     68 calls
WnmjeDS                     :      1.617u      0.167s      0.254w     68 calls
WbmfeDS                     :      6.783u      0.500s      1.095w     68 calls
sigmaDD                     :     62.167u     10.367s     10.880w     68 calls
FDD                         :      2.517u      0.200s      0.420w     68 calls
WmnijDD                     :      0.150u      0.000s      0.019w     68 calls
WabefDD                     :     51.767u      9.200s      9.159w     68 calls
WmbejDD                     :      3.700u      0.533s      0.610w     68 calls
WmnefDD                     :      4.000u      0.433s      0.670w     68 calls
cc3_HC1                     :     97.700u     17.167s     17.307w     37 calls
cc3_HC1ET1                  :    121.167u     19.833s     21.195w     37 calls
sigmaCC3                    :   2302.267u    110.183s    361.878w     37 calls
BUILD G                     :      1.417u      0.100s      0.252w     67 calls
CALC RES                    :      2.100u      0.367s      0.373w     67 calls
RESTART                     :      0.567u      0.050s      0.097w      7 calls

-----------------------------------------------------------
Total PK formation time     :      3.667u      0.083s      0.573w      1 calls
HF: Form H                  :      0.033u      0.000s      0.005w      1 calls
HF: Form S/X                :      0.000u      0.000s      0.001w      1 calls
HF: Guess                   :      0.000u      0.000s      0.001w      1 calls
HF: Form G                  :      3.450u      0.083s      0.533w     17 calls
| JK: D                     :      0.000u      0.000s      0.000w     17 calls
| JK: USO2AO                :      0.000u      0.000s      0.005w     17 calls
| JK: JK                    :      3.433u      0.083s      0.520w     17 calls
| | PK computes JK          :      3.433u      0.083s      0.520w     17 calls
| JK: AO2USO                :      0.017u      0.000s      0.007w     17 calls
HF: Form F                  :      0.000u      0.000s      0.002w     17 calls
HF: DIIS                    :      0.050u      0.000s      0.009w     17 calls
| DIISManager::add_entry    :      0.000u      0.000s      0.003w     17 calls
| DIISManager::extrapolate  :      0.050u      0.000s      0.005w     16 calls
| | bMatrix setup           :      0.033u      0.000s      0.002w     16 calls
| | bMatrix pseudoinverse   :      0.000u      0.000s      0.001w     16 calls
| | New vector              :      0.017u      0.000s      0.002w     16 calls
HF: Form C                  :      0.117u      0.000s      0.010w     17 calls
HF: Form D                  :      0.000u      0.000s      0.000w     17 calls
CCEOM                       :   2607.117u    160.333s    415.327w      1 calls
| HBAR_EXTRA                :      0.083u      0.000s      0.015w      1 calls
| INIT GUESS                :      0.350u      0.050s      0.131w      1 calls
| SIGMA ALL                 :   2599.633u    159.117s    413.958w     68 calls
| | sigmaSS                 :      0.217u      0.017s      0.043w     68 calls
| | sigmaSD                 :      2.950u      0.367s      0.498w     68 calls
| | | FSD                   :      0.283u      0.033s      0.054w     68 calls
| | | WamefSD               :      2.400u      0.333s      0.406w     68 calls
| | | WmnieSD               :      0.267u      0.000s      0.037w     68 calls
| | sigmaDS                 :     13.167u      1.183s      2.155w     68 calls
| | | WmaijDS               :      0.883u      0.117s      0.155w     68 calls
| | | WabejDS               :      3.883u      0.400s      0.651w     68 calls
| | | WnmjeDS               :      1.617u      0.167s      0.254w     68 calls
| | | WbmfeDS               :      6.783u      0.500s      1.095w     68 calls
| | sigmaDD                 :     62.167u     10.367s     10.880w     68 calls
| | | FDD                   :      2.517u      0.200s      0.420w     68 calls
| | | WmnijDD               :      0.150u      0.000s      0.019w     68 calls
| | | WabefDD               :     51.767u      9.200s      9.159w     68 calls
| | | WmbejDD               :      3.700u      0.533s      0.610w     68 calls
| | | WmnefDD               :      4.000u      0.433s      0.670w     68 calls
| | cc3_HC1                 :     97.700u     17.167s     17.307w     37 calls
| | cc3_HC1ET1              :    121.167u     19.833s     21.195w     37 calls
| | sigmaCC3                :   2302.267u    110.183s    361.878w     37 calls
| BUILD G                   :      1.417u      0.100s      0.252w     67 calls
| CALC RES                  :      2.100u      0.367s      0.373w     67 calls
| RESTART                   :      0.567u      0.050s      0.097w      7 calls

***********************************************************

Host: node11

Timers On : Sat Nov  5 10:19:22 2022
Timers Off: Sat Nov  5 10:28:26 2022

Wall Time:      544.20 seconds

Total PK formation time     :      3.750u      0.067s      0.590w      1 calls
HF: Form H                  :      0.033u      0.000s      0.006w      1 calls
HF: Form S/X                :      0.000u      0.000s      0.001w      1 calls
HF: Guess                   :      0.000u      0.000s      0.001w      1 calls
HF: Form G                  :      3.217u      0.083s      0.498w     16 calls
JK: D                       :      0.000u      0.000s      0.000w     16 calls
JK: USO2AO                  :      0.033u      0.000s      0.006w     16 calls
JK: JK                      :      3.167u      0.083s      0.483w     16 calls
PK computes JK              :      3.167u      0.083s      0.483w     16 calls
JK: AO2USO                  :      0.017u      0.000s      0.008w     16 calls
HF: Form F                  :      0.033u      0.000s      0.002w     16 calls
HF: DIIS                    :      0.017u      0.017s      0.009w     16 calls
DIISManager::add_entry      :      0.000u      0.000s      0.003w     16 calls
DIISManager::extrapolate    :      0.017u      0.017s      0.005w     15 calls
bMatrix setup               :      0.000u      0.000s      0.002w     15 calls
bMatrix pseudoinverse       :      0.000u      0.000s      0.001w     15 calls
New vector                  :      0.017u      0.017s      0.002w     15 calls
HF: Form C                  :      0.100u      0.000s      0.010w     16 calls
HF: Form D                  :      0.000u      0.000s      0.000w     16 calls
CCEOM                       :   2755.000u    163.783s    438.124w      1 calls
HBAR_EXTRA                  :      0.083u      0.000s      0.014w      1 calls
INIT GUESS                  :      0.317u      0.050s      0.141w      1 calls
SIGMA ALL                   :   2747.950u    162.683s    436.813w     68 calls
sigmaSS                     :      0.383u      0.017s      0.051w     68 calls
sigmaSD                     :      2.600u      0.400s      0.456w     68 calls
FSD                         :      0.350u      0.033s      0.062w     68 calls
WamefSD                     :      2.083u      0.333s      0.354w     68 calls
WmnieSD                     :      0.150u      0.033s      0.040w     68 calls
sigmaDS                     :     14.233u      1.300s      2.334w     68 calls
WmaijDS                     :      1.133u      0.067s      0.182w     68 calls
WabejDS                     :      3.533u      0.450s      0.593w     68 calls
WnmjeDS                     :      1.817u      0.117s      0.294w     68 calls
WbmfeDS                     :      7.733u      0.667s      1.263w     68 calls
sigmaDD                     :     61.350u     10.183s     10.735w     68 calls
FDD                         :      2.967u      0.367s      0.488w     68 calls
WmnijDD                     :      0.167u      0.017s      0.021w     68 calls
WabefDD                     :     49.733u      8.933s      8.812w     68 calls
WmbejDD                     :      3.350u      0.600s      0.605w     68 calls
WmnefDD                     :      5.083u      0.267s      0.808w     68 calls
cc3_HC1                     :    101.750u     17.667s     17.919w     37 calls
cc3_HC1ET1                  :    126.833u     22.233s     22.492w     37 calls
sigmaCC3                    :   2440.767u    110.883s    382.825w     37 calls
BUILD G                     :      1.333u      0.100s      0.210w     67 calls
CALC RES                    :      1.983u      0.383s      0.364w     67 calls
RESTART                     :      0.517u      0.100s      0.092w      7 calls

-----------------------------------------------------------
Total PK formation time     :      3.750u      0.067s      0.590w      1 calls
HF: Form H                  :      0.033u      0.000s      0.006w      1 calls
HF: Form S/X                :      0.000u      0.000s      0.001w      1 calls
HF: Guess                   :      0.000u      0.000s      0.001w      1 calls
HF: Form G                  :      3.217u      0.083s      0.498w     16 calls
| JK: D                     :      0.000u      0.000s      0.000w     16 calls
| JK: USO2AO                :      0.033u      0.000s      0.006w     16 calls
| JK: JK                    :      3.167u      0.083s      0.483w     16 calls
| | PK computes JK          :      3.167u      0.083s      0.483w     16 calls
| JK: AO2USO                :      0.017u      0.000s      0.008w     16 calls
HF: Form F                  :      0.033u      0.000s      0.002w     16 calls
HF: DIIS                    :      0.017u      0.017s      0.009w     16 calls
| DIISManager::add_entry    :      0.000u      0.000s      0.003w     16 calls
| DIISManager::extrapolate  :      0.017u      0.017s      0.005w     15 calls
| | bMatrix setup           :      0.000u      0.000s      0.002w     15 calls
| | bMatrix pseudoinverse   :      0.000u      0.000s      0.001w     15 calls
| | New vector              :      0.017u      0.017s      0.002w     15 calls
HF: Form C                  :      0.100u      0.000s      0.010w     16 calls
HF: Form D                  :      0.000u      0.000s      0.000w     16 calls
CCEOM                       :   2755.000u    163.783s    438.124w      1 calls
| HBAR_EXTRA                :      0.083u      0.000s      0.014w      1 calls
| INIT GUESS                :      0.317u      0.050s      0.141w      1 calls
| SIGMA ALL                 :   2747.950u    162.683s    436.813w     68 calls
| | sigmaSS                 :      0.383u      0.017s      0.051w     68 calls
| | sigmaSD                 :      2.600u      0.400s      0.456w     68 calls
| | | FSD                   :      0.350u      0.033s      0.062w     68 calls
| | | WamefSD               :      2.083u      0.333s      0.354w     68 calls
| | | WmnieSD               :      0.150u      0.033s      0.040w     68 calls
| | sigmaDS                 :     14.233u      1.300s      2.334w     68 calls
| | | WmaijDS               :      1.133u      0.067s      0.182w     68 calls
| | | WabejDS               :      3.533u      0.450s      0.593w     68 calls
| | | WnmjeDS               :      1.817u      0.117s      0.294w     68 calls
| | | WbmfeDS               :      7.733u      0.667s      1.263w     68 calls
| | sigmaDD                 :     61.350u     10.183s     10.735w     68 calls
| | | FDD                   :      2.967u      0.367s      0.488w     68 calls
| | | WmnijDD               :      0.167u      0.017s      0.021w     68 calls
| | | WabefDD               :     49.733u      8.933s      8.812w     68 calls
| | | WmbejDD               :      3.350u      0.600s      0.605w     68 calls
| | | WmnefDD               :      5.083u      0.267s      0.808w     68 calls
| | cc3_HC1                 :    101.750u     17.667s     17.919w     37 calls
| | cc3_HC1ET1              :    126.833u     22.233s     22.492w     37 calls
| | sigmaCC3                :   2440.767u    110.883s    382.825w     37 calls
| BUILD G                   :      1.333u      0.100s      0.210w     67 calls
| CALC RES                  :      1.983u      0.383s      0.364w     67 calls
| RESTART                   :      0.517u      0.100s      0.092w      7 calls

***********************************************************

Host: node11

Timers On : Sat Nov  5 10:19:22 2022
Timers Off: Sat Nov  5 10:28:32 2022

Wall Time:      549.39 seconds

Total PK formation time     :      3.667u      0.067s      0.578w      1 calls
HF: Form H                  :      0.033u      0.000s      0.004w      1 calls
HF: Form S/X                :      0.000u      0.000s      0.001w      1 calls
HF: Guess                   :      0.000u      0.000s      0.001w      1 calls
HF: Form G                  :      3.150u      0.067s      0.487w     16 calls
JK: D                       :      0.017u      0.000s      0.000w     16 calls
JK: USO2AO                  :      0.083u      0.000s      0.005w     16 calls
JK: JK                      :      3.033u      0.067s      0.475w     16 calls
PK computes JK              :      3.033u      0.067s      0.474w     16 calls
JK: AO2USO                  :      0.017u      0.000s      0.006w     16 calls
HF: Form F                  :      0.033u      0.017s      0.002w     16 calls
HF: DIIS                    :      0.083u      0.017s      0.009w     16 calls
DIISManager::add_entry      :      0.000u      0.000s      0.002w     16 calls
DIISManager::extrapolate    :      0.050u      0.017s      0.005w     15 calls
bMatrix setup               :      0.017u      0.000s      0.002w     15 calls
bMatrix pseudoinverse       :      0.017u      0.000s      0.001w     15 calls
New vector                  :      0.017u      0.000s      0.002w     15 calls
HF: Form C                  :      0.033u      0.000s      0.009w     16 calls
HF: Form D                  :      0.000u      0.000s      0.000w     16 calls
CCEOM                       :   2675.617u    169.683s    427.406w      1 calls
HBAR_EXTRA                  :      0.067u      0.033s      0.016w      1 calls
INIT GUESS                  :      0.383u      0.033s      0.133w      1 calls
SIGMA ALL                   :   2667.400u    168.567s    425.724w     68 calls
sigmaSS                     :      0.350u      0.067s      0.059w     68 calls
sigmaSD                     :      2.450u      0.433s      0.435w     68 calls
FSD                         :      0.400u      0.033s      0.070w     68 calls
WamefSD                     :      1.867u      0.367s      0.321w     68 calls
WmnieSD                     :      0.183u      0.033s      0.044w     68 calls
sigmaDS                     :     15.900u      1.483s      2.601w     68 calls
WmaijDS                     :      1.217u      0.100s      0.213w     68 calls
WabejDS                     :      3.550u      0.500s      0.599w     68 calls
WnmjeDS                     :      1.967u      0.233s      0.330w     68 calls
WbmfeDS                     :      9.133u      0.650s      1.458w     68 calls
sigmaDD                     :     64.633u     10.500s     11.285w     68 calls
FDD                         :      3.267u      0.283s      0.558w     68 calls
WmnijDD                     :      0.167u      0.000s      0.023w     68 calls
WabefDD                     :     52.050u      9.183s      9.160w     68 calls
WmbejDD                     :      3.300u      0.500s      0.587w     68 calls
WmnefDD                     :      5.850u      0.517s      0.956w     68 calls
cc3_HC1                     :     96.750u     17.933s     17.193w     37 calls
cc3_HC1ET1                  :    122.417u     21.850s     21.658w     37 calls
sigmaCC3                    :   2364.883u    116.300s    372.490w     37 calls
BUILD G                     :      1.200u      0.067s      0.188w     67 calls
CALC RES                    :      2.083u      0.467s      0.394w     67 calls
RESTART                     :      0.533u      0.067s      0.095w      7 calls

-----------------------------------------------------------
Total PK formation time     :      3.667u      0.067s      0.578w      1 calls
HF: Form H                  :      0.033u      0.000s      0.004w      1 calls
HF: Form S/X                :      0.000u      0.000s      0.001w      1 calls
HF: Guess                   :      0.000u      0.000s      0.001w      1 calls
HF: Form G                  :      3.150u      0.067s      0.487w     16 calls
| JK: D                     :      0.017u      0.000s      0.000w     16 calls
| JK: USO2AO                :      0.083u      0.000s      0.005w     16 calls
| JK: JK                    :      3.033u      0.067s      0.475w     16 calls
| | PK computes JK          :      3.033u      0.067s      0.474w     16 calls
| JK: AO2USO                :      0.017u      0.000s      0.006w     16 calls
HF: Form F                  :      0.033u      0.017s      0.002w     16 calls
HF: DIIS                    :      0.083u      0.017s      0.009w     16 calls
| DIISManager::add_entry    :      0.000u      0.000s      0.002w     16 calls
| DIISManager::extrapolate  :      0.050u      0.017s      0.005w     15 calls
| | bMatrix setup           :      0.017u      0.000s      0.002w     15 calls
| | bMatrix pseudoinverse   :      0.017u      0.000s      0.001w     15 calls
| | New vector              :      0.017u      0.000s      0.002w     15 calls
HF: Form C                  :      0.033u      0.000s      0.009w     16 calls
HF: Form D                  :      0.000u      0.000s      0.000w     16 calls
CCEOM                       :   2675.617u    169.683s    427.406w      1 calls
| HBAR_EXTRA                :      0.067u      0.033s      0.016w      1 calls
| INIT GUESS                :      0.383u      0.033s      0.133w      1 calls
| SIGMA ALL                 :   2667.400u    168.567s    425.724w     68 calls
| | sigmaSS                 :      0.350u      0.067s      0.059w     68 calls
| | sigmaSD                 :      2.450u      0.433s      0.435w     68 calls
| | | FSD                   :      0.400u      0.033s      0.070w     68 calls
| | | WamefSD               :      1.867u      0.367s      0.321w     68 calls
| | | WmnieSD               :      0.183u      0.033s      0.044w     68 calls
| | sigmaDS                 :     15.900u      1.483s      2.601w     68 calls
| | | WmaijDS               :      1.217u      0.100s      0.213w     68 calls
| | | WabejDS               :      3.550u      0.500s      0.599w     68 calls
| | | WnmjeDS               :      1.967u      0.233s      0.330w     68 calls
| | | WbmfeDS               :      9.133u      0.650s      1.458w     68 calls
| | sigmaDD                 :     64.633u     10.500s     11.285w     68 calls
| | | FDD                   :      3.267u      0.283s      0.558w     68 calls
| | | WmnijDD               :      0.167u      0.000s      0.023w     68 calls
| | | WabefDD               :     52.050u      9.183s      9.160w     68 calls
| | | WmbejDD               :      3.300u      0.500s      0.587w     68 calls
| | | WmnefDD               :      5.850u      0.517s      0.956w     68 calls
| | cc3_HC1                 :     96.750u     17.933s     17.193w     37 calls
| | cc3_HC1ET1              :    122.417u     21.850s     21.658w     37 calls
| | sigmaCC3                :   2364.883u    116.300s    372.490w     37 calls
| BUILD G                   :      1.200u      0.067s      0.188w     67 calls
| CALC RES                  :      2.083u      0.467s      0.394w     67 calls
| RESTART                   :      0.533u      0.067s      0.095w      7 calls

***********************************************************

Host: node20

Timers On : Sat Nov  5 10:19:24 2022
Timers Off: Sat Nov  5 10:28:35 2022

Wall Time:      550.77 seconds

Total PK formation time     :      2.883u      0.067s      0.441w      1 calls
HF: Form H                  :      0.033u      0.000s      0.008w      1 calls
HF: Form S/X                :      0.017u      0.000s      0.001w      1 calls
HF: Guess                   :      0.000u      0.000s      0.001w      1 calls
HF: Form G                  :      3.850u      0.117s      0.592w     16 calls
JK: D                       :      0.033u      0.000s      0.000w     16 calls
JK: USO2AO                  :      0.050u      0.000s      0.008w     16 calls
JK: JK                      :      3.733u      0.117s      0.574w     16 calls
PK computes JK              :      3.733u      0.117s      0.574w     16 calls
JK: AO2USO                  :      0.033u      0.000s      0.009w     16 calls
HF: Form F                  :      0.000u      0.017s      0.002w     16 calls
HF: DIIS                    :      0.033u      0.033s      0.009w     16 calls
DIISManager::add_entry      :      0.017u      0.017s      0.003w     16 calls
DIISManager::extrapolate    :      0.017u      0.017s      0.004w     15 calls
bMatrix setup               :      0.000u      0.000s      0.002w     15 calls
bMatrix pseudoinverse       :      0.000u      0.000s      0.001w     15 calls
New vector                  :      0.000u      0.017s      0.001w     15 calls
HF: Form C                  :      0.033u      0.000s      0.008w     16 calls
HF: Form D                  :      0.000u      0.000s      0.000w     16 calls
CCEOM                       :   2652.467u    174.717s    425.456w      1 calls
HBAR_EXTRA                  :      0.050u      0.017s      0.015w      1 calls
INIT GUESS                  :      0.233u      0.067s      0.131w      1 calls
SIGMA ALL                   :   2643.967u    173.483s    423.794w     68 calls
sigmaSS                     :      0.317u      0.067s      0.062w     68 calls
sigmaSD                     :      2.817u      0.500s      0.492w     68 calls
FSD                         :      0.433u      0.067s      0.064w     68 calls
WamefSD                     :      2.183u      0.433s      0.385w     68 calls
WmnieSD                     :      0.183u      0.000s      0.042w     68 calls
sigmaDS                     :     15.317u      1.383s      2.520w     68 calls
WmaijDS                     :      1.250u      0.167s      0.195w     68 calls
WabejDS                     :      3.933u      0.450s      0.672w     68 calls
WnmjeDS                     :      1.817u      0.133s      0.307w     68 calls
WbmfeDS                     :      8.317u      0.633s      1.345w     68 calls
sigmaDD                     :     66.400u     11.300s     11.795w     68 calls
FDD                         :      3.233u      0.333s      0.513w     68 calls
WmnijDD                     :      0.150u      0.017s      0.023w     68 calls
WabefDD                     :     54.250u     10.033s      9.775w     68 calls
WmbejDD                     :      3.483u      0.550s      0.624w     68 calls
WmnefDD                     :      5.267u      0.367s      0.858w     68 calls
cc3_HC1                     :    102.133u     18.467s     18.091w     37 calls
cc3_HC1ET1                  :    126.133u     22.700s     22.340w     37 calls
sigmaCC3                    :   2330.817u    119.067s    368.493w     37 calls
BUILD G                     :      1.450u      0.100s      0.226w     67 calls
CALC RES                    :      2.250u      0.367s      0.396w     67 calls
RESTART                     :      0.550u      0.117s      0.101w      7 calls

-----------------------------------------------------------
Total PK formation time     :      2.883u      0.067s      0.441w      1 calls
HF: Form H                  :      0.033u      0.000s      0.008w      1 calls
HF: Form S/X                :      0.017u      0.000s      0.001w      1 calls
HF: Guess                   :      0.000u      0.000s      0.001w      1 calls
HF: Form G                  :      3.850u      0.117s      0.592w     16 calls
| JK: D                     :      0.033u      0.000s      0.000w     16 calls
| JK: USO2AO                :      0.050u      0.000s      0.008w     16 calls
| JK: JK                    :      3.733u      0.117s      0.574w     16 calls
| | PK computes JK          :      3.733u      0.117s      0.574w     16 calls
| JK: AO2USO                :      0.033u      0.000s      0.009w     16 calls
HF: Form F                  :      0.000u      0.017s      0.002w     16 calls
HF: DIIS                    :      0.033u      0.033s      0.009w     16 calls
| DIISManager::add_entry    :      0.017u      0.017s      0.003w     16 calls
| DIISManager::extrapolate  :      0.017u      0.017s      0.004w     15 calls
| | bMatrix setup           :      0.000u      0.000s      0.002w     15 calls
| | bMatrix pseudoinverse   :      0.000u      0.000s      0.001w     15 calls
| | New vector              :      0.000u      0.017s      0.001w     15 calls
HF: Form C                  :      0.033u      0.000s      0.008w     16 calls
HF: Form D                  :      0.000u      0.000s      0.000w     16 calls
CCEOM                       :   2652.467u    174.717s    425.456w      1 calls
| HBAR_EXTRA                :      0.050u      0.017s      0.015w      1 calls
| INIT GUESS                :      0.233u      0.067s      0.131w      1 calls
| SIGMA ALL                 :   2643.967u    173.483s    423.794w     68 calls
| | sigmaSS                 :      0.317u      0.067s      0.062w     68 calls
| | sigmaSD                 :      2.817u      0.500s      0.492w     68 calls
| | | FSD                   :      0.433u      0.067s      0.064w     68 calls
| | | WamefSD               :      2.183u      0.433s      0.385w     68 calls
| | | WmnieSD               :      0.183u      0.000s      0.042w     68 calls
| | sigmaDS                 :     15.317u      1.383s      2.520w     68 calls
| | | WmaijDS               :      1.250u      0.167s      0.195w     68 calls
| | | WabejDS               :      3.933u      0.450s      0.672w     68 calls
| | | WnmjeDS               :      1.817u      0.133s      0.307w     68 calls
| | | WbmfeDS               :      8.317u      0.633s      1.345w     68 calls
| | sigmaDD                 :     66.400u     11.300s     11.795w     68 calls
| | | FDD                   :      3.233u      0.333s      0.513w     68 calls
| | | WmnijDD               :      0.150u      0.017s      0.023w     68 calls
| | | WabefDD               :     54.250u     10.033s      9.775w     68 calls
| | | WmbejDD               :      3.483u      0.550s      0.624w     68 calls
| | | WmnefDD               :      5.267u      0.367s      0.858w     68 calls
| | cc3_HC1                 :    102.133u     18.467s     18.091w     37 calls
| | cc3_HC1ET1              :    126.133u     22.700s     22.340w     37 calls
| | sigmaCC3                :   2330.817u    119.067s    368.493w     37 calls
| BUILD G                   :      1.450u      0.100s      0.226w     67 calls
| CALC RES                  :      2.250u      0.367s      0.396w     67 calls
| RESTART                   :      0.550u      0.117s      0.101w      7 calls

***********************************************************

Host: node16

Timers On : Sat Nov  5 10:19:14 2022
Timers Off: Sat Nov  5 10:28:33 2022

Wall Time:      559.59 seconds

Total PK formation time     :      3.350u      0.050s      0.524w      1 calls
HF: Form H                  :      0.050u      0.000s      0.013w      1 calls
HF: Form S/X                :      0.017u      0.000s      0.001w      1 calls
HF: Guess                   :      0.000u      0.000s      0.001w      1 calls
HF: Form G                  :      3.183u      0.033s      0.488w     16 calls
JK: D                       :      0.017u      0.000s      0.000w     16 calls
JK: USO2AO                  :      0.017u      0.000s      0.005w     16 calls
JK: JK                      :      3.100u      0.033s      0.476w     16 calls
PK computes JK              :      3.100u      0.033s      0.476w     16 calls
JK: AO2USO                  :      0.050u      0.000s      0.006w     16 calls
HF: Form F                  :      0.033u      0.017s      0.002w     16 calls
HF: DIIS                    :      0.050u      0.000s      0.008w     16 calls
DIISManager::add_entry      :      0.000u      0.000s      0.003w     16 calls
DIISManager::extrapolate    :      0.033u      0.000s      0.005w     15 calls
bMatrix setup               :      0.000u      0.000s      0.002w     15 calls
bMatrix pseudoinverse       :      0.000u      0.000s      0.001w     15 calls
New vector                  :      0.033u      0.000s      0.002w     15 calls
HF: Form C                  :      0.067u      0.000s      0.009w     16 calls
HF: Form D                  :      0.000u      0.000s      0.000w     16 calls
CCEOM                       :   2717.850u    177.350s    434.495w      1 calls
HBAR_EXTRA                  :      0.100u      0.033s      0.018w      1 calls
INIT GUESS                  :      0.283u      0.033s      0.134w      1 calls
SIGMA ALL                   :   2710.633u    176.183s    433.164w     68 calls
sigmaSS                     :      0.417u      0.033s      0.062w     68 calls
sigmaSD                     :      2.650u      0.467s      0.448w     68 calls
FSD                         :      0.433u      0.033s      0.070w     68 calls
WamefSD                     :      1.750u      0.433s      0.334w     68 calls
WmnieSD                     :      0.450u      0.000s      0.044w     68 calls
sigmaDS                     :     16.167u      1.400s      2.660w     68 calls
WmaijDS                     :      1.183u      0.083s      0.215w     68 calls
WabejDS                     :      3.717u      0.517s      0.626w     68 calls
WnmjeDS                     :      2.167u      0.117s      0.340w     68 calls
WbmfeDS                     :      9.100u      0.683s      1.478w     68 calls
sigmaDD                     :     67.650u     11.217s     11.877w     68 calls
FDD                         :      3.500u      0.233s      0.564w     68 calls
WmnijDD                     :      0.150u      0.000s      0.023w     68 calls
WabefDD                     :     54.667u     10.133s      9.750w     68 calls
WmbejDD                     :      3.333u      0.467s      0.580w     68 calls
WmnefDD                     :      6.000u      0.383s      0.958w     68 calls
cc3_HC1                     :    101.883u     18.283s     18.017w     37 calls
cc3_HC1ET1                  :    128.067u     22.133s     22.546w     37 calls
sigmaCC3                    :   2393.783u    122.650s    377.552w     37 calls
BUILD G                     :      1.283u      0.100s      0.190w     67 calls
CALC RES                    :      2.067u      0.483s      0.380w     67 calls
RESTART                     :      0.567u      0.100s      0.098w      7 calls

-----------------------------------------------------------
Total PK formation time     :      3.350u      0.050s      0.524w      1 calls
HF: Form H                  :      0.050u      0.000s      0.013w      1 calls
HF: Form S/X                :      0.017u      0.000s      0.001w      1 calls
HF: Guess                   :      0.000u      0.000s      0.001w      1 calls
HF: Form G                  :      3.183u      0.033s      0.488w     16 calls
| JK: D                     :      0.017u      0.000s      0.000w     16 calls
| JK: USO2AO                :      0.017u      0.000s      0.005w     16 calls
| JK: JK                    :      3.100u      0.033s      0.476w     16 calls
| | PK computes JK          :      3.100u      0.033s      0.476w     16 calls
| JK: AO2USO                :      0.050u      0.000s      0.006w     16 calls
HF: Form F                  :      0.033u      0.017s      0.002w     16 calls
HF: DIIS                    :      0.050u      0.000s      0.008w     16 calls
| DIISManager::add_entry    :      0.000u      0.000s      0.003w     16 calls
| DIISManager::extrapolate  :      0.033u      0.000s      0.005w     15 calls
| | bMatrix setup           :      0.000u      0.000s      0.002w     15 calls
| | bMatrix pseudoinverse   :      0.000u      0.000s      0.001w     15 calls
| | New vector              :      0.033u      0.000s      0.002w     15 calls
HF: Form C                  :      0.067u      0.000s      0.009w     16 calls
HF: Form D                  :      0.000u      0.000s      0.000w     16 calls
CCEOM                       :   2717.850u    177.350s    434.495w      1 calls
| HBAR_EXTRA                :      0.100u      0.033s      0.018w      1 calls
| INIT GUESS                :      0.283u      0.033s      0.134w      1 calls
| SIGMA ALL                 :   2710.633u    176.183s    433.164w     68 calls
| | sigmaSS                 :      0.417u      0.033s      0.062w     68 calls
| | sigmaSD                 :      2.650u      0.467s      0.448w     68 calls
| | | FSD                   :      0.433u      0.033s      0.070w     68 calls
| | | WamefSD               :      1.750u      0.433s      0.334w     68 calls
| | | WmnieSD               :      0.450u      0.000s      0.044w     68 calls
| | sigmaDS                 :     16.167u      1.400s      2.660w     68 calls
| | | WmaijDS               :      1.183u      0.083s      0.215w     68 calls
| | | WabejDS               :      3.717u      0.517s      0.626w     68 calls
| | | WnmjeDS               :      2.167u      0.117s      0.340w     68 calls
| | | WbmfeDS               :      9.100u      0.683s      1.478w     68 calls
| | sigmaDD                 :     67.650u     11.217s     11.877w     68 calls
| | | FDD                   :      3.500u      0.233s      0.564w     68 calls
| | | WmnijDD               :      0.150u      0.000s      0.023w     68 calls
| | | WabefDD               :     54.667u     10.133s      9.750w     68 calls
| | | WmbejDD               :      3.333u      0.467s      0.580w     68 calls
| | | WmnefDD               :      6.000u      0.383s      0.958w     68 calls
| | cc3_HC1                 :    101.883u     18.283s     18.017w     37 calls
| | cc3_HC1ET1              :    128.067u     22.133s     22.546w     37 calls
| | sigmaCC3                :   2393.783u    122.650s    377.552w     37 calls
| BUILD G                   :      1.283u      0.100s      0.190w     67 calls
| CALC RES                  :      2.067u      0.483s      0.380w     67 calls
| RESTART                   :      0.567u      0.100s      0.098w      7 calls

***********************************************************

Host: node10

Timers On : Sat Nov  5 10:19:26 2022
Timers Off: Sat Nov  5 10:28:46 2022

Wall Time:      559.93 seconds

Total PK formation time     :      3.750u      0.083s      0.590w      1 calls
HF: Form H                  :      0.033u      0.000s      0.004w      1 calls
HF: Form S/X                :      0.000u      0.000s      0.001w      1 calls
HF: Guess                   :      0.000u      0.000s      0.001w      1 calls
HF: Form G                  :      3.050u      0.067s      0.471w     16 calls
JK: D                       :      0.000u      0.000s      0.000w     16 calls
JK: USO2AO                  :      0.067u      0.000s      0.006w     16 calls
JK: JK                      :      2.967u      0.067s      0.455w     16 calls
PK computes JK              :      2.967u      0.067s      0.455w     16 calls
JK: AO2USO                  :      0.000u      0.000s      0.008w     16 calls
HF: Form F                  :      0.050u      0.000s      0.002w     16 calls
HF: DIIS                    :      0.000u      0.000s      0.007w     16 calls
DIISManager::add_entry      :      0.000u      0.000s      0.002w     16 calls
DIISManager::extrapolate    :      0.000u      0.000s      0.004w     15 calls
bMatrix setup               :      0.000u      0.000s      0.002w     15 calls
bMatrix pseudoinverse       :      0.000u      0.000s      0.001w     15 calls
New vector                  :      0.000u      0.000s      0.001w     15 calls
HF: Form C                  :      0.100u      0.000s      0.008w     16 calls
HF: Form D                  :      0.000u      0.000s      0.000w     16 calls
CCEOM                       :   2718.483u    177.300s    434.568w      1 calls
HBAR_EXTRA                  :      0.100u      0.000s      0.017w      1 calls
INIT GUESS                  :      0.233u      0.067s      0.129w      1 calls
SIGMA ALL                   :   2710.867u    175.967s    433.109w     68 calls
sigmaSS                     :      0.333u      0.100s      0.062w     68 calls
sigmaSD                     :      2.517u      0.500s      0.445w     68 calls
FSD                         :      0.333u      0.067s      0.070w     68 calls
WamefSD                     :      1.900u      0.400s      0.330w     68 calls
WmnieSD                     :      0.283u      0.033s      0.044w     68 calls
sigmaDS                     :     16.067u      1.483s      2.652w     68 calls
WmaijDS                     :      1.317u      0.150s      0.216w     68 calls
WabejDS                     :      3.717u      0.450s      0.625w     68 calls
WnmjeDS                     :      2.017u      0.200s      0.337w     68 calls
WbmfeDS                     :      9.017u      0.683s      1.474w     68 calls
sigmaDD                     :     66.183u     11.200s     11.594w     68 calls
FDD                         :      3.467u      0.317s      0.564w     68 calls
WmnijDD                     :      0.133u      0.033s      0.023w     68 calls
WabefDD                     :     53.167u      9.933s      9.456w     68 calls
WmbejDD                     :      3.400u      0.500s      0.589w     68 calls
WmnefDD                     :      6.017u      0.417s      0.961w     68 calls
cc3_HC1                     :    101.967u     18.133s     18.083w     37 calls
cc3_HC1ET1                  :    126.283u     22.150s     22.264w     37 calls
sigmaCC3                    :   2397.517u    122.400s    378.007w     37 calls
BUILD G                     :      1.200u      0.150s      0.188w     67 calls
CALC RES                    :      2.017u      0.500s      0.387w     67 calls
RESTART                     :      0.483u      0.150s      0.100w      7 calls

-----------------------------------------------------------
Total PK formation time     :      3.750u      0.083s      0.590w      1 calls
HF: Form H                  :      0.033u      0.000s      0.004w      1 calls
HF: Form S/X                :      0.000u      0.000s      0.001w      1 calls
HF: Guess                   :      0.000u      0.000s      0.001w      1 calls
HF: Form G                  :      3.050u      0.067s      0.471w     16 calls
| JK: D                     :      0.000u      0.000s      0.000w     16 calls
| JK: USO2AO                :      0.067u      0.000s      0.006w     16 calls
| JK: JK                    :      2.967u      0.067s      0.455w     16 calls
| | PK computes JK          :      2.967u      0.067s      0.455w     16 calls
| JK: AO2USO                :      0.000u      0.000s      0.008w     16 calls
HF: Form F                  :      0.050u      0.000s      0.002w     16 calls
HF: DIIS                    :      0.000u      0.000s      0.007w     16 calls
| DIISManager::add_entry    :      0.000u      0.000s      0.002w     16 calls
| DIISManager::extrapolate  :      0.000u      0.000s      0.004w     15 calls
| | bMatrix setup           :      0.000u      0.000s      0.002w     15 calls
| | bMatrix pseudoinverse   :      0.000u      0.000s      0.001w     15 calls
| | New vector              :      0.000u      0.000s      0.001w     15 calls
HF: Form C                  :      0.100u      0.000s      0.008w     16 calls
HF: Form D                  :      0.000u      0.000s      0.000w     16 calls
CCEOM                       :   2718.483u    177.300s    434.568w      1 calls
| HBAR_EXTRA                :      0.100u      0.000s      0.017w      1 calls
| INIT GUESS                :      0.233u      0.067s      0.129w      1 calls
| SIGMA ALL                 :   2710.867u    175.967s    433.109w     68 calls
| | sigmaSS                 :      0.333u      0.100s      0.062w     68 calls
| | sigmaSD                 :      2.517u      0.500s      0.445w     68 calls
| | | FSD                   :      0.333u      0.067s      0.070w     68 calls
| | | WamefSD               :      1.900u      0.400s      0.330w     68 calls
| | | WmnieSD               :      0.283u      0.033s      0.044w     68 calls
| | sigmaDS                 :     16.067u      1.483s      2.652w     68 calls
| | | WmaijDS               :      1.317u      0.150s      0.216w     68 calls
| | | WabejDS               :      3.717u      0.450s      0.625w     68 calls
| | | WnmjeDS               :      2.017u      0.200s      0.337w     68 calls
| | | WbmfeDS               :      9.017u      0.683s      1.474w     68 calls
| | sigmaDD                 :     66.183u     11.200s     11.594w     68 calls
| | | FDD                   :      3.467u      0.317s      0.564w     68 calls
| | | WmnijDD               :      0.133u      0.033s      0.023w     68 calls
| | | WabefDD               :     53.167u      9.933s      9.456w     68 calls
| | | WmbejDD               :      3.400u      0.500s      0.589w     68 calls
| | | WmnefDD               :      6.017u      0.417s      0.961w     68 calls
| | cc3_HC1                 :    101.967u     18.133s     18.083w     37 calls
| | cc3_HC1ET1              :    126.283u     22.150s     22.264w     37 calls
| | sigmaCC3                :   2397.517u    122.400s    378.007w     37 calls
| BUILD G                   :      1.200u      0.150s      0.188w     67 calls
| CALC RES                  :      2.017u      0.500s      0.387w     67 calls
| RESTART                   :      0.483u      0.150s      0.100w      7 calls

***********************************************************

Host: node18

Timers On : Sat Nov  5 10:19:20 2022
Timers Off: Sat Nov  5 10:28:45 2022

Wall Time:      565.07 seconds

Total PK formation time     :      3.367u      0.083s      0.517w      1 calls
HF: Form H                  :      0.033u      0.000s      0.005w      1 calls
HF: Form S/X                :      0.000u      0.000s      0.001w      1 calls
HF: Guess                   :      0.000u      0.000s      0.001w      1 calls
HF: Form G                  :      3.467u      0.067s      0.534w     17 calls
JK: D                       :      0.000u      0.000s      0.000w     17 calls
JK: USO2AO                  :      0.050u      0.000s      0.005w     17 calls
JK: JK                      :      3.383u      0.067s      0.521w     17 calls
PK computes JK              :      3.383u      0.067s      0.521w     17 calls
JK: AO2USO                  :      0.033u      0.000s      0.007w     17 calls
HF: Form F                  :      0.067u      0.000s      0.002w     17 calls
HF: DIIS                    :      0.100u      0.000s      0.012w     17 calls
DIISManager::add_entry      :      0.033u      0.000s      0.005w     17 calls
DIISManager::extrapolate    :      0.050u      0.000s      0.006w     16 calls
bMatrix setup               :      0.017u      0.000s      0.002w     16 calls
bMatrix pseudoinverse       :      0.017u      0.000s      0.001w     16 calls
New vector                  :      0.017u      0.000s      0.002w     16 calls
HF: Form C                  :      0.017u      0.017s      0.010w     17 calls
HF: Form D                  :      0.000u      0.000s      0.000w     17 calls
CCEOM                       :   2755.883u    177.300s    441.292w      1 calls
HBAR_EXTRA                  :      0.083u      0.033s      0.016w      1 calls
INIT GUESS                  :      0.300u      0.050s      0.128w      1 calls
SIGMA ALL                   :   2748.850u    176.017s    439.970w     68 calls
sigmaSS                     :      0.267u      0.033s      0.060w     68 calls
sigmaSD                     :      2.500u      0.367s      0.432w     68 calls
FSD                         :      0.517u      0.033s      0.071w     68 calls
WamefSD                     :      1.750u      0.333s      0.316w     68 calls
WmnieSD                     :      0.200u      0.000s      0.044w     68 calls
sigmaDS                     :     16.200u      1.450s      2.638w     68 calls
WmaijDS                     :      1.417u      0.133s      0.215w     68 calls
WabejDS                     :      3.667u      0.367s      0.617w     68 calls
WnmjeDS                     :      1.967u      0.300s      0.335w     68 calls
WbmfeDS                     :      9.133u      0.650s      1.469w     68 calls
sigmaDD                     :     66.383u     10.850s     11.606w     68 calls
FDD                         :      3.517u      0.217s      0.566w     68 calls
WmnijDD                     :      0.150u      0.017s      0.023w     68 calls
WabefDD                     :     53.200u      9.833s      9.472w     68 calls
WmbejDD                     :      3.367u      0.517s      0.581w     68 calls
WmnefDD                     :      6.150u      0.267s      0.961w     68 calls
cc3_HC1                     :    103.883u     18.000s     18.397w     37 calls
cc3_HC1ET1                  :    130.050u     22.133s     23.105w     37 calls
sigmaCC3                    :   2429.550u    123.183s    383.731w     37 calls
BUILD G                     :      1.067u      0.133s      0.189w     67 calls
CALC RES                    :      2.133u      0.450s      0.383w     67 calls
RESTART                     :      0.533u      0.100s      0.096w      7 calls

-----------------------------------------------------------
Total PK formation time     :      3.367u      0.083s      0.517w      1 calls
HF: Form H                  :      0.033u      0.000s      0.005w      1 calls
HF: Form S/X                :      0.000u      0.000s      0.001w      1 calls
HF: Guess                   :      0.000u      0.000s      0.001w      1 calls
HF: Form G                  :      3.467u      0.067s      0.534w     17 calls
| JK: D                     :      0.000u      0.000s      0.000w     17 calls
| JK: USO2AO                :      0.050u      0.000s      0.005w     17 calls
| JK: JK                    :      3.383u      0.067s      0.521w     17 calls
| | PK computes JK          :      3.383u      0.067s      0.521w     17 calls
| JK: AO2USO                :      0.033u      0.000s      0.007w     17 calls
HF: Form F                  :      0.067u      0.000s      0.002w     17 calls
HF: DIIS                    :      0.100u      0.000s      0.012w     17 calls
| DIISManager::add_entry    :      0.033u      0.000s      0.005w     17 calls
| DIISManager::extrapolate  :      0.050u      0.000s      0.006w     16 calls
| | bMatrix setup           :      0.017u      0.000s      0.002w     16 calls
| | bMatrix pseudoinverse   :      0.017u      0.000s      0.001w     16 calls
| | New vector              :      0.017u      0.000s      0.002w     16 calls
HF: Form C                  :      0.017u      0.017s      0.010w     17 calls
HF: Form D                  :      0.000u      0.000s      0.000w     17 calls
CCEOM                       :   2755.883u    177.300s    441.292w      1 calls
| HBAR_EXTRA                :      0.083u      0.033s      0.016w      1 calls
| INIT GUESS                :      0.300u      0.050s      0.128w      1 calls
| SIGMA ALL                 :   2748.850u    176.017s    439.970w     68 calls
| | sigmaSS                 :      0.267u      0.033s      0.060w     68 calls
| | sigmaSD                 :      2.500u      0.367s      0.432w     68 calls
| | | FSD                   :      0.517u      0.033s      0.071w     68 calls
| | | WamefSD               :      1.750u      0.333s      0.316w     68 calls
| | | WmnieSD               :      0.200u      0.000s      0.044w     68 calls
| | sigmaDS                 :     16.200u      1.450s      2.638w     68 calls
| | | WmaijDS               :      1.417u      0.133s      0.215w     68 calls
| | | WabejDS               :      3.667u      0.367s      0.617w     68 calls
| | | WnmjeDS               :      1.967u      0.300s      0.335w     68 calls
| | | WbmfeDS               :      9.133u      0.650s      1.469w     68 calls
| | sigmaDD                 :     66.383u     10.850s     11.606w     68 calls
[...]
FSD                         :      0.883u      0.067s      0.136w     73 calls
WamefSD                     :      4.667u      0.883s      0.841w     73 calls
WmnieSD                     :      0.517u      0.000s      0.080w     73 calls
sigmaDS                     :     38.217u      3.567s      6.316w     73 calls
WmaijDS                     :      2.267u      0.300s      0.399w     73 calls
WabejDS                     :     10.283u      1.317s      1.717w     73 calls
WnmjeDS                     :      3.233u      0.250s      0.518w     73 calls
WbmfeDS                     :     22.433u      1.700s      3.680w     73 calls
sigmaDD                     :    162.033u     31.483s     29.053w     73 calls
FDD                         :      6.083u      0.633s      0.993w     73 calls
WmnijDD                     :      0.300u      0.033s      0.054w     73 calls
WabefDD                     :    137.733u     28.650s     24.999w     73 calls
WmbejDD                     :      8.367u      1.200s      1.436w     73 calls
WmnefDD                     :      9.517u      0.967s      1.568w     73 calls
cc3_HC1                     :    258.267u     51.650s     46.532w     39 calls
cc3_HC1ET1                  :    313.433u     61.733s     56.517w     39 calls
sigmaCC3                    :   5703.967u    289.967s    899.683w     39 calls
BUILD G                     :      2.033u      0.300s      0.347w     73 calls
CALC RES                    :      4.700u      0.933s      0.869w     73 calls
RESTART                     :      1.300u      0.217s      0.233w      8 calls

-----------------------------------------------------------
Total PK formation time     :      3.350u      0.083s      0.536w      1 calls
HF: Form H                  :      0.033u      0.000s      0.006w      1 calls
HF: Form S/X                :      0.000u      0.000s      0.001w      1 calls
HF: Guess                   :      0.017u      0.000s      0.001w      1 calls
HF: Form G                  :      3.433u      0.117s      0.534w     17 calls
| JK: D                     :      0.000u      0.000s      0.001w     17 calls
| JK: USO2AO                :      0.017u      0.000s      0.006w     17 calls
| JK: JK                    :      3.400u      0.117s      0.518w     17 calls
| | PK computes JK          :      3.400u      0.117s      0.518w     17 calls
| JK: AO2USO                :      0.000u      0.000s      0.008w     17 calls
HF: Form F                  :      0.000u      0.000s      0.004w     17 calls
HF: DIIS                    :      0.100u      0.033s      0.016w     17 calls
| DIISManager::add_entry    :      0.000u      0.000s      0.004w     17 calls
| DIISManager::extrapolate  :      0.100u      0.017s      0.010w     16 calls
| | bMatrix setup           :      0.033u      0.000s      0.005w     16 calls
| | bMatrix pseudoinverse   :      0.033u      0.000s      0.001w     16 calls
| | New vector              :      0.033u      0.017s      0.003w     16 calls
HF: Form C                  :      0.133u      0.017s      0.022w     17 calls
HF: Form D                  :      0.000u      0.000s      0.001w     17 calls
CCEOM                       :   6498.433u    442.183s   1042.337w      1 calls
| HBAR_EXTRA                :      0.050u      0.050s      0.036w      1 calls
| INIT GUESS                :      0.250u      0.100s      0.240w      1 calls
| SIGMA ALL                 :   6482.850u    439.433s   1039.303w     73 calls
| | sigmaSS                 :      0.850u      0.083s      0.140w     73 calls
| | sigmaSD                 :      6.067u      0.950s      1.059w     73 calls
| | | FSD                   :      0.883u      0.067s      0.136w     73 calls
| | | WamefSD               :      4.667u      0.883s      0.841w     73 calls
| | | WmnieSD               :      0.517u      0.000s      0.080w     73 calls
| | sigmaDS                 :     38.217u      3.567s      6.316w     73 calls
| | | WmaijDS               :      2.267u      0.300s      0.399w     73 calls
| | | WabejDS               :     10.283u      1.317s      1.717w     73 calls
| | | WnmjeDS               :      3.233u      0.250s      0.518w     73 calls
| | | WbmfeDS               :     22.433u      1.700s      3.680w     73 calls
| | sigmaDD                 :    162.033u     31.483s     29.053w     73 calls
| | | FDD                   :      6.083u      0.633s      0.993w     73 calls
| | | WmnijDD               :      0.300u      0.033s      0.054w     73 calls
| | | WabefDD               :    137.733u     28.650s     24.999w     73 calls
| | | WmbejDD               :      8.367u      1.200s      1.436w     73 calls
| | | WmnefDD               :      9.517u      0.967s      1.568w     73 calls
| | cc3_HC1                 :    258.267u     51.650s     46.532w     39 calls
| | cc3_HC1ET1              :    313.433u     61.733s     56.517w     39 calls
| | sigmaCC3                :   5703.967u    289.967s    899.683w     39 calls
| BUILD G                   :      2.033u      0.300s      0.347w     73 calls
| CALC RES                  :      4.700u      0.933s      0.869w     73 calls
| RESTART                   :      1.300u      0.217s      0.233w      8 calls

***********************************************************

Host: node7

Timers On : Sat Nov  5 10:19:23 2022
Timers Off: Sat Nov  5 10:41:32 2022

Wall Time:     1328.07 seconds

Total PK formation time     :      3.267u      0.100s      0.526w      1 calls
HF: Form H                  :      0.050u      0.000s      0.012w      1 calls
HF: Form S/X                :      0.017u      0.000s      0.001w      1 calls
HF: Guess                   :      0.000u      0.000s      0.001w      1 calls
HF: Form G                  :      3.117u      0.083s      0.481w     17 calls
JK: D                       :      0.000u      0.000s      0.001w     17 calls
JK: USO2AO                  :      0.017u      0.000s      0.008w     17 calls
JK: JK                      :      3.083u      0.083s      0.462w     17 calls
PK computes JK              :      3.083u      0.083s      0.462w     17 calls
JK: AO2USO                  :      0.000u      0.000s      0.009w     17 calls
HF: Form F                  :      0.033u      0.000s      0.007w     17 calls
HF: DIIS                    :      0.167u      0.000s      0.017w     17 calls
DIISManager::add_entry      :      0.033u      0.000s      0.004w     17 calls
DIISManager::extrapolate    :      0.067u      0.000s      0.010w     16 calls
bMatrix setup               :      0.000u      0.000s      0.005w     16 calls
bMatrix pseudoinverse       :      0.033u      0.000s      0.001w     16 calls
New vector                  :      0.033u      0.000s      0.003w     16 calls
HF: Form C                  :      0.133u      0.000s      0.022w     17 calls
HF: Form D                  :      0.000u      0.000s      0.001w     17 calls
CCEOM                       :   6496.317u    448.633s   1042.998w      1 calls
HBAR_EXTRA                  :      0.017u      0.033s      0.038w      1 calls
INIT GUESS                  :      0.283u      0.100s      0.244w      1 calls
SIGMA ALL                   :   6478.950u    445.750s   1039.618w     73 calls
sigmaSS                     :      0.950u      0.067s      0.148w     73 calls
sigmaSD                     :      7.100u      1.250s      1.245w     73 calls
FSD                         :      0.783u      0.050s      0.131w     73 calls
WamefSD                     :      5.917u      1.100s      1.031w     73 calls
WmnieSD                     :      0.400u      0.100s      0.081w     73 calls
sigmaDS                     :     39.500u      3.467s      6.516w     73 calls
WmaijDS                     :      2.367u      0.267s      0.393w     73 calls
WabejDS                     :     11.517u      1.250s      1.934w     73 calls
WnmjeDS                     :      3.250u      0.350s      0.521w     73 calls
WbmfeDS                     :     22.350u      1.600s      3.665w     73 calls
sigmaDD                     :    163.233u     32.050s     29.344w     73 calls
FDD                         :      5.983u      0.600s      0.991w     73 calls
WmnijDD                     :      0.317u      0.083s      0.058w     73 calls
WabefDD                     :    138.017u     29.067s     25.120w     73 calls
WmbejDD                     :      9.300u      1.400s      1.594w     73 calls
WmnefDD                     :      9.600u      0.900s      1.578w     73 calls
cc3_HC1                     :    257.900u     52.567s     46.612w     39 calls
cc3_HC1ET1                  :    316.583u     61.833s     57.320w     39 calls
sigmaCC3                    :   5693.683u    294.517s    898.430w     39 calls
BUILD G                     :      2.533u      0.267s      0.430w     73 calls
CALC RES                    :      5.517u      1.017s      0.977w     73 calls
RESTART                     :      1.433u      0.300s      0.258w      8 calls

-----------------------------------------------------------
Total PK formation time     :      3.267u      0.100s      0.526w      1 calls
HF: Form H                  :      0.050u      0.000s      0.012w      1 calls
HF: Form S/X                :      0.017u      0.000s      0.001w      1 calls
HF: Guess                   :      0.000u      0.000s      0.001w      1 calls
HF: Form G                  :      3.117u      0.083s      0.481w     17 calls
| JK: D                     :      0.000u      0.000s      0.001w     17 calls
| JK: USO2AO                :      0.017u      0.000s      0.008w     17 calls
| JK: JK                    :      3.083u      0.083s      0.462w     17 calls
| | PK computes JK          :      3.083u      0.083s      0.462w     17 calls
| JK: AO2USO                :      0.000u      0.000s      0.009w     17 calls
HF: Form F                  :      0.033u      0.000s      0.007w     17 calls
HF: DIIS                    :      0.167u      0.000s      0.017w     17 calls
| DIISManager::add_entry    :      0.033u      0.000s      0.004w     17 calls
| DIISManager::extrapolate  :      0.067u      0.000s      0.010w     16 calls
| | bMatrix setup           :      0.000u      0.000s      0.005w     16 calls
| | bMatrix pseudoinverse   :      0.033u      0.000s      0.001w     16 calls
| | New vector              :      0.033u      0.000s      0.003w     16 calls
HF: Form C                  :      0.133u      0.000s      0.022w     17 calls
HF: Form D                  :      0.000u      0.000s      0.001w     17 calls
CCEOM                       :   6496.317u    448.633s   1042.998w      1 calls
| HBAR_EXTRA                :      0.017u      0.033s      0.038w      1 calls
| INIT GUESS                :      0.283u      0.100s      0.244w      1 calls
| SIGMA ALL                 :   6478.950u    445.750s   1039.618w     73 calls
| | sigmaSS                 :      0.950u      0.067s      0.148w     73 calls
| | sigmaSD                 :      7.100u      1.250s      1.245w     73 calls
| | | FSD                   :      0.783u      0.050s      0.131w     73 calls
| | | WamefSD               :      5.917u      1.100s      1.031w     73 calls
| | | WmnieSD               :      0.400u      0.100s      0.081w     73 calls
| | sigmaDS                 :     39.500u      3.467s      6.516w     73 calls
| | | WmaijDS               :      2.367u      0.267s      0.393w     73 calls
| | | WabejDS               :     11.517u      1.250s      1.934w     73 calls
| | | WnmjeDS               :      3.250u      0.350s      0.521w     73 calls
| | | WbmfeDS               :     22.350u      1.600s      3.665w     73 calls
| | sigmaDD                 :    163.233u     32.050s     29.344w     73 calls
| | | FDD                   :      5.983u      0.600s      0.991w     73 calls
| | | WmnijDD               :      0.317u      0.083s      0.058w     73 calls
| | | WabefDD               :    138.017u     29.067s     25.120w     73 calls
| | | WmbejDD               :      9.300u      1.400s      1.594w     73 calls
| | | WmnefDD               :      9.600u      0.900s      1.578w     73 calls
| | cc3_HC1                 :    257.900u     52.567s     46.612w     39 calls
| | cc3_HC1ET1              :    316.583u     61.833s     57.320w     39 calls
| | sigmaCC3                :   5693.683u    294.517s    898.430w     39 calls
| BUILD G                   :      2.533u      0.267s      0.430w     73 calls
| CALC RES                  :      5.517u      1.017s      0.977w     73 calls
| RESTART                   :      1.433u      0.300s      0.258w      8 calls

***********************************************************

Host: node7

Timers On : Sat Nov  5 10:19:23 2022
Timers Off: Sat Nov  5 10:43:13 2022

Wall Time:     1429.83 seconds

Total PK formation time     :      3.350u      0.083s      0.535w      1 calls
HF: Form H                  :      0.033u      0.017s      0.006w      1 calls
HF: Form S/X                :      0.000u      0.000s      0.002w      1 calls
HF: Guess                   :      0.017u      0.000s      0.002w      1 calls
HF: Form G                  :      3.583u      0.083s      0.563w     18 calls
JK: D                       :      0.000u      0.000s      0.001w     18 calls
JK: USO2AO                  :      0.017u      0.000s      0.008w     18 calls
JK: JK                      :      3.550u      0.083s      0.543w     18 calls
PK computes JK              :      3.550u      0.083s      0.543w     18 calls
JK: AO2USO                  :      0.000u      0.000s      0.010w     18 calls
HF: Form F                  :      0.050u      0.000s      0.006w     18 calls
HF: DIIS                    :      0.183u      0.000s      0.019w     18 calls
DIISManager::add_entry      :      0.033u      0.000s      0.005w     18 calls
DIISManager::extrapolate    :      0.067u      0.000s      0.011w     17 calls
bMatrix setup               :      0.017u      0.000s      0.006w     17 calls
bMatrix pseudoinverse       :      0.050u      0.000s      0.001w     17 calls
New vector                  :      0.000u      0.000s      0.003w     17 calls
HF: Form C                  :      0.167u      0.017s      0.025w     18 calls
HF: Form D                  :      0.017u      0.000s      0.001w     18 calls
CCEOM                       :   7180.600u    441.400s   1144.119w      1 calls
HBAR_EXTRA                  :      0.017u      0.033s      0.036w      1 calls
INIT GUESS                  :      0.267u      0.083s      0.228w      1 calls
SIGMA ALL                   :   7164.017u    438.517s   1140.729w     76 calls
sigmaSS                     :      0.683u      0.117s      0.145w     76 calls
sigmaSD                     :      6.683u      1.000s      1.138w     76 calls
FSD                         :      0.967u      0.050s      0.142w     76 calls
WamefSD                     :      5.150u      0.883s      0.910w     76 calls
WmnieSD                     :      0.550u      0.067s      0.084w     76 calls
sigmaDS                     :     40.583u      3.417s      6.575w     76 calls
WmaijDS                     :      2.550u      0.317s      0.417w     76 calls
WabejDS                     :     11.633u      1.183s      1.941w     76 calls
WnmjeDS                     :      3.350u      0.417s      0.547w     76 calls
WbmfeDS                     :     23.017u      1.500s      3.668w     76 calls
sigmaDD                     :    169.467u     31.217s     30.173w     76 calls
FDD                         :      6.350u      0.550s      1.044w     76 calls
WmnijDD                     :      0.317u      0.017s      0.058w     76 calls
WabefDD                     :    143.567u     28.250s     25.836w     76 calls
WmbejDD                     :      9.150u      1.300s      1.567w     76 calls
WmnefDD                     :     10.033u      1.100s      1.665w     76 calls
cc3_HC1                     :    278.600u     52.567s     49.696w     42 calls
cc3_HC1ET1                  :    337.833u     64.317s     60.445w     42 calls
sigmaCC3                    :   6330.150u    285.883s    992.554w     42 calls
BUILD G                     :      2.150u      0.267s      0.376w     75 calls
CALC RES                    :      5.283u      1.167s      0.938w     75 calls
RESTART                     :      1.400u      0.333s      0.265w      9 calls

-----------------------------------------------------------
Total PK formation time     :      3.350u      0.083s      0.535w      1 calls
HF: Form H                  :      0.033u      0.017s      0.006w      1 calls
HF: Form S/X                :      0.000u      0.000s      0.002w      1 calls
HF: Guess                   :      0.017u      0.000s      0.002w      1 calls
HF: Form G                  :      3.583u      0.083s      0.563w     18 calls
| JK: D                     :      0.000u      0.000s      0.001w     18 calls
| JK: USO2AO                :      0.017u      0.000s      0.008w     18 calls
| JK: JK                    :      3.550u      0.083s      0.543w     18 calls
| | PK computes JK          :      3.550u      0.083s      0.543w     18 calls
| JK: AO2USO                :      0.000u      0.000s      0.010w     18 calls
HF: Form F                  :      0.050u      0.000s      0.006w     18 calls
HF: DIIS                    :      0.183u      0.000s      0.019w     18 calls
| DIISManager::add_entry    :      0.033u      0.000s      0.005w     18 calls
| DIISManager::extrapolate  :      0.067u      0.000s      0.011w     17 calls
| | bMatrix setup           :      0.017u      0.000s      0.006w     17 calls
| | bMatrix pseudoinverse   :      0.050u      0.000s      0.001w     17 calls
| | New vector              :      0.000u      0.000s      0.003w     17 calls
HF: Form C                  :      0.167u      0.017s      0.025w     18 calls
HF: Form D                  :      0.017u      0.000s      0.001w     18 calls
CCEOM                       :   7180.600u    441.400s   1144.119w      1 calls
| HBAR_EXTRA                :      0.017u      0.033s      0.036w      1 calls
| INIT GUESS                :      0.267u      0.083s      0.228w      1 calls
| SIGMA ALL                 :   7164.017u    438.517s   1140.729w     76 calls
| | sigmaSS                 :      0.683u      0.117s      0.145w     76 calls
| | sigmaSD                 :      6.683u      1.000s      1.138w     76 calls
| | | FSD                   :      0.967u      0.050s      0.142w     76 calls
| | | WamefSD               :      5.150u      0.883s      0.910w     76 calls
| | | WmnieSD               :      0.550u      0.067s      0.084w     76 calls
| | sigmaDS                 :     40.583u      3.417s      6.575w     76 calls
| | | WmaijDS               :      2.550u      0.317s      0.417w     76 calls
| | | WabejDS               :     11.633u      1.183s      1.941w     76 calls
| | | WnmjeDS               :      3.350u      0.417s      0.547w     76 calls
| | | WbmfeDS               :     23.017u      1.500s      3.668w     76 calls
| | sigmaDD                 :    169.467u     31.217s     30.173w     76 calls
| | | FDD                   :      6.350u      0.550s      1.044w     76 calls
| | | WmnijDD               :      0.317u      0.017s      0.058w     76 calls
| | | WabefDD               :    143.567u     28.250s     25.836w     76 calls
| | | WmbejDD               :      9.150u      1.300s      1.567w     76 calls
| | | WmnefDD               :     10.033u      1.100s      1.665w     76 calls
| | cc3_HC1                 :    278.600u     52.567s     49.696w     42 calls
| | cc3_HC1ET1              :    337.833u     64.317s     60.445w     42 calls
| | sigmaCC3                :   6330.150u    285.883s    992.554w     42 calls
| BUILD G                   :      2.150u      0.267s      0.376w     75 calls
| CALC RES                  :      5.283u      1.167s      0.938w     75 calls
| RESTART                   :      1.400u      0.333s      0.265w      9 calls

***********************************************************
