 --invoking executable--
/home/qc/cfour_v2.1_intel_2017_eland2/bin/xjoda


   *************************************************************************
         <<<     CCCCCC     CCCCCC   |||     CCCCCC     CCCCCC   >>>
       <<<      CCC        CCC       |||    CCC        CCC         >>>
      <<<      CCC        CCC        |||   CCC        CCC            >>>
    <<<        CCC        CCC        |||   CCC        CCC              >>>
      <<<      CCC        CCC        |||   CCC        CCC            >>>
       <<<      CCC        CCC       |||    CCC        CCC         >>>
         <<<     CCCCCC     CCCCCC   |||     CCCCCC     CCCCCC   >>>
   *************************************************************************

     ****************************************************************
     * CFOUR Coupled-Cluster techniques for Computational Chemistry *
     ****************************************************************
 

   Department of Chemistry                Institut fuer Physikalische Chemie
   University of Florida                  Universitaet Mainz
   Gainesville, FL 32611, USA             D-55099 Mainz, Germany

   Department of Chemistry                Fakultaet fuer Chemie und Biowiss.
   Johns Hopkins University               Karlsruher Institut fuer Technologie
   Baltimore, MD 21218, USA               D-76131 Karlsruhe, Germany

   Department of Chemistry                Department of Physical Chemistry
   Southern Methodist University          Eotvos Lorand University
   Dallas, TX 75275, USA                  H-1053 Budapest, Hungary

 
                       Version 2.1
 
                     node3                                             
                     Fri 04 Nov 2022 09:27:06 AM CDT                   
                     integer*8 version is running
 
********************************************************************************
*                          Input from ZMAT file                                *
********************************************************************************
h2o AUG-PVTZ CC3                                                                
H        0.0000000000       -1.5289363750       -0.9679032764                   
O        0.0000000000       -0.0000000000        0.1195423628                   
H        0.0000000000        1.5289363750       -0.9679032764                   
                                                                                
                                                                                
                                                                                
*CFOUR(CALC=CC3,BASIS=AUG-PVTZ,COORDINATES=CARTESIAN,UNITS=BOHR                 
CC_CONV=9                                                                       
LINEQ_CONV=12                                                                   
SCF_CONV=9                                                                      
ESTATE_CONV=10                                                                  
CHARGE=0                                                                        
MULTIPLICITY=1                                                                  
FROZEN_CORE=ON                                                                  
RELATIVISTIC=OFF                                                                
REFERENCE=RHF                                                                   
EXCITE=EOMIP                                                                    
ESTATE_SYM=0/1/0/0                                                              
MEM_UNIT=GB,MEMORY_SIZE=32)                                                     
                                                                                
H:APVTZ-X2C                                                                     
O:APVTZ-X2C                                                                     
H:APVTZ-X2C                                                                     
                                                                                
********************************************************************************
    -------------------------------------------------------------------
                    CFOUR Control Parameters 
    -------------------------------------------------------------------
        External           Internal           Value            Units
          Name               Name
    -------------------------------------------------------------------
       ABCDTYPE             IABCDT         STANDARD    [  0]    ***   
       ANHARMONIC           IANHAR         OFF         [  0]    ***   
       ANH_ALGORIT          IANALG         STANDARD    [  0]    ***   
       ANH_DERIVAT          IANDER         SECOND      [  1]    ***   
       ANH_MODE             ANHMOD         VIBRATION   [  0]    ***   
       ANH_STEPSIZ          ICUBST             50000          x 10-6  
       ANH_SYMMETR          IANHSM         ABELIAN     [  0]    ***   
       AO_LADDERS           IAOLAD         SINGLEPASS  [  1]    ***   
       AV_SCF               IAVSCF         OFF         [  0]    ***   
       BASIS                IBASIS         AUG-PVTZ    [ 34]    ***   
       BOTHVECTORS          BOTHVC         OFF         [  0]    ***   
       BOX_POTENT           IPIAB          OFF         [  0]    ***   
       BREIT                IBREIT         OFF         [  0]    ***   
       BRUCK_CONV           IBRTOL          10D-  4             ***   
       BRUECKNER            IBRKNR         OFF         [  0]    ***   
       BUFFERSIZE           IBUFFS              4096            ***   
       CACHE_RECS           ICHREC             10               ***   
       CALCLEVEL            ICLLVL         CC3         [ 32]    ***   
       CCORBOPT             ICCORB         OFF         [  0]  x 0.01  
       CC_CONV              ICCCNV          10D-  9             ***   
       CC_EXPORDER          ICCEOR              5               ***   
       CC_EXTRAPOL          ICCEXT         DIIS        [  1]    ***   
       CC_GUESS             ICCGES         MP2         [  0]    ***   
       CC_MAXCYC            ICCCYC            100              cycles 
       CC_PROGRAM           ICCPRO         VCC         [  0]    ***   
       CHARGE               ICHRGE              0               ***   
       CHOLESKY             ICHOLE         OFF         [  0]    ***   
       CIS_CONV             ICISTL              5               ***   
       COMM_SIZE            IPSIZE            ***               ***   
       CONSTANT             ICONST         OLD         [  1]    ***   
       CONTINUUM            ICONTU         NONE        [  0]    ***   
       CONTRACTION          ICNTYP         GENERAL     [  1]    ***   
       COORDINATES          ICOORD         CARTESIAN   [  1]    ***   
       CPHF_CONVER          ICPHFT          10D- 16             ***   
       CPHF_MAXCYC          ICPHFC             64              cycles 
       CUBIC                ICUBIC         OFF         [  0]    ***   
       CURVILINEAR          ICURVY         OFF         [  0]    ***   
       DBOC                 IDBOC          OFF         [  0]    ***   
       DCT                  IDCT           OFF         [  0]    ***   
       DERIV_LEV            IDRLVL         ZERO        [  0]    ***   
       DEVMEM_SIZE          IDVMEM         *********           MByte  
       DIAG_MRCC            IEOMST          10D-  0             ***   
       DIFF_TYPE            IDIFTY         RELAXED     [  0]    ***   
       DIRECT               IDIRCT         OFF         [  0]    ***   
       DROPMO               IDRPMO      NONE         
       ECP                  IECP           OFF         [  0]    ***   
       EIGENVECTOR          IVEC                1               ***   
       EL_ANHARM            IELANH         OFF         [  0]    ***   
       EOMFOLLOW            IEOMSR         ENERGY      [  0]    ***   
       EOMIP                IEOMIP         OFF         [  0]    ***   
       EOMLEVEL             HBARFM         SAME        [  0]    ***   
       EOM_MRCC             IMRCCE         NEW         [  1]    ***   
       EOM_NONIT            EOMNON         OFF         [  0]    ***   
       EOM_NSING            IEOMSI          10D-  0             ***   
       EOM_NSTATES          IMRCCD         DAVIDSON    [  0]    ***   
       EOM_NTRIP            IEOMTR          10D-  0             ***   
       EOM_ORDER            IEXORD         ENERGY      [  0]    ***   
       EOM_PROPSTA          IEOMST              0               ***   
       ESTATE_CONV          IEXTOL          10D- 10             ***   
       ESTATE_DIAG          IEXDIG         ITERATIVE   [  0]    ***   
       ESTATE_LOCK          IESLOC         ON          [  1]    ***   
       ESTATE_MAXC          IEXMXC             40               ***   
       ESTATE_PROP          IEXPRP         OFF         [  0]    ***   
       ESTATE_SYM           IEXSYM   0,  1,  0,  0,
       EVAL_HESS            IRECAL              0            # of cyc.
       EXCITATION           IEXCIT              0               ***   
       EXCITE               IEXCIT         EOMIP       [  4]    ***   
       EXTERN_POT           IEXPOT         OFF         [  0]    ***   
       FCGRADNEW            IFCGNW         OFF         [  0]    ***   
       FC_FIELD             IFINFC              0             x 10-6  
       FD_CALTYPE           IFDCAL         GRADONLY    [  0]    ***   
       FD_PROJECT           IFDPRJ         OFF         [  1]    ***   
       FD_STEPSIZE          IDISFD              0            10-4 bohr
       FD_USEGROUP          IFDGRP         FULL        [  0]    ***   
       FILE_RECSIZ          IFLREC              4096           words  
       FINITE_PERT          IFIPER              0             x 10-6  
       FIXGEOM              IFIXGM         OFF         [  0]    ***   
       FOCK                 IFOCK          AO          [  1]    ***   
       FREQ_ALGORI          IVIALG         STANDARD    [  0]    ***   
       FROZEN_CORE          IFROCO         ON          [  1]    ***   
       GAMMA_ABCD           IGABCD         STORE       [  0]    ***   
       GAMMA_ABCI           IGABCI         STORE       [  0]    ***   
       GENBAS_1             IGNBS1              0               ***   
       GENBAS_2             IGNBS2              0               ***   
       GENBAS_3             IGNBS3              0               ***   
       GENBAS_4             IGNBS4              0               ***   
       GEO_CONV             ICONTL              5              H/bohr 
       GEO_MAXCYC           IOPTCY             50               ***   
       GEO_MAXSTEP          IMXSTP            300            millibohr
       GEO_METHOD           INR            SINGLE_POINT[  5]    ***   
       GIAO                 IGIAO          OFF         [  1]    ***   
       GIMIC                IGIMIC         OFF         [  0]    ***   
       GRID                 IGRID          OFF         [  0]    ***   
       GRID_ALGO            IGALGO         SERIAL      [  0]    ***   
       GUESS                IGUESS         MOREAD      [  0]    ***   
       HBAR                 IHBAR          ON          [  1]    ***   
       HESS_TYPE            IHESTP         SCF         [  0]    ***   
       HF2_FILE             IHF2Fl         USE         [  1]    ***   
       HFSTABILITY          ISTABL         OFF         [  0]    ***   
       INCORE               INCORE         OFF         [  0]    ***   
       INPUT_MRCC           IMRCC          ON          [  1]    ***   
       INTEGRALS            INTTYP         VMOL        [  1]    ***   
       JODA_PRINT           IJPRNT              0               ***   
       KEYWORD_OUT          IDMPKW         NO          [  0]    ***   
       LINDEP_TOL           ILINDP              8               ***   
       LINEQ_CONV           IZTACN          10D- 12           cycles  
       LINEQ_EXPOR          ILMAXD              5               ***   
       LINEQ_MAXCY          ILMAXC            100               ***   
       LINEQ_TYPE           ILTYPE         DIIS        [  1]    ***   
       LOCK_ORBOCC          ILOCOC         OFF         [  0]    ***   
       MEMORY_SIZE          IMEMSZ         *********           words  
       MEM_UNIT             IMEMU          GB          [  3]    ***   
       MRCC                 IMRCCC         OFF         [  0]    ***   
       MULTIPLICTY          IMULTP              1               ***   
       NACOUPLING           IVCOUP         OFF         [  0]    ***   
       NEGEVAL              IDIE           ABORT       [  0]    ***   
       NEWNORM              INEWNO         OFF         [  0]    ***   
       NON-HF               INONHF         OFF         [  0]    ***   
       NTOP_TAMP            ITOPT2             15               ***   
       NUC_MODEL            INUCMO         POINT       [  0]    ***   
       OCCUPATION           IOCCU   ESTIMATED BY SCF 
       OPEN-SHELL           IOPEN          SPIN-ORBITAL[  0]    ***   
       OPTVIB               IOPTVB         OFF         [  0]    ***   
       ORBITALS             IORBTP         STANDARD    [  0]    ***   
       PARALLEL             IPARAL         ON          [  1]    ***   
       PARA_INT             IPINTS         ON          [  1]    ***   
       PARA_PRINT           IPPRIN              0               ***   
       PERT_ORB             IPTORB         STANDARD    [  0]    ***   
       POINTS               IGRDFD              0               ***   
       PRINT                IPRNT               0               ***   
       PROPS                IPROPS         OFF         [  0]    ***   
       PROP_INTEGR          IINTYP         INTERNAL    [  0]    ***   
       PSI                  IPSI           OFF         [  0]    ***   
       QC_ALG               IQCALG         FLM         [  0]    ***   
       QC_LINALG            IQCLIN         TRIDIAG     [  2]    ***   
       QC_MAXCYC            IQCMAX          10D-100           cycles  
       QC_MAXSCFCY          IQCMSC          10D- 15           cycles  
       QC_RTRUST            IQCRTR          10D-  0           x 10-3  
       QC_SKIPSCF           IQCSKI         OFF         [  0]    ***   
       QC_START             IQCSTA          10D-  1             ***   
       QRHFGUESS            IQGUES         OFF         [  0]    ***   
       QUARTIC              IQUART         OFF         [  0]    ***   
       RAMAN_INT            IRAMIN         OFF         [  0]    ***   
       RAMAN_ORB            IRAMRE         UNRELAXED   [  0]    ***   
       RDO                  IRDOFM         OFF         [  0]    ***   
       REDUCE_REPR          REDREP         Ir          [  0]    ***   
       REFERENCE            IREFNC         RHF         [  0]    ***   
       RELATIVIST           IRELAT         OFF         [  0]    ***   
       RELAX_DENS           IRDENS         OFF         [  0]    ***   
       RESET_FLAGS          IRESET         OFF         [  0]    ***   
       RESTART_CC           ICCRES         OFF         [  0]    ***   
       ROT_EVEC             ROTVEC              0               ***   
       SAVE_INTS            ISVINT         OFF         [  0]    ***   
       SCALE_ON             ISTCRT              0               ***   
       SCF_CONV             ISCFCV          10D-  9             ***   
       SCF_DAMPING          IDAMP               0             x 10-3  
       SCF_EXPORDE          IRPPOR              6               ***   
       SCF_EXPSTAR          IRPPLS              8               ***   
       SCF_EXTRAPO          IRPP           ON          [  1]    ***   
       SCF_MAXCYC           ISCFCY            150              cycles 
       SCF_NOSTOP           ISCFST         OFF         [  0]    ***   
       SCF_PRINT            ISCFPR              0               ***   
       SCF_PROG             ISCFPR         SCF         [  0]    ***   
       SD_FIELD             IFINSD              0             x 10-6  
       SOPERT               IPERSO         OFF         [  0]    ***   
       SPHERICAL            IDFGHI         ON          [  1]    ***   
       SPINORBIT            ISOCAL         OFF         [  0]    ***   
       SPINROTATIO          ISRCON         OFF         [  0]    ***   
       SPIN_FLIP            ISPFLP         OFF         [  0]    ***   
       SPIN_ORBIT           ISPORB         OFF         [  0]    ***   
       SPIN_SCAL            ISCSMP         OFF         [  0]    ***   
       STEEPSCALE           ISTPSC              1000          x 10-3  
       SUBGROUP             ISUBGP         DEFAULT     [  0]    ***   
       SUBGRPAXIS           ISBXYZ         X           [  0]    ***   
       SYMMETRY             ISYM           ON          [  0]    ***   
       SYM_CHECK            ISYMCK         OVERRIDE    [  1]    ***   
       T3_EXTRAPOL          IT3EXT         OFF         [  0]    ***   
       T4_EXTRAPOL          IT4EXP         OFF         [  0]    ***   
       TAMP_SUM             IEVERY              5               ***   
       TESTSUITE            ITESTS         OFF         [  0]    ***   
       THERMOCH             ITHERM         OFF         [  0]    ***   
       TOL_CHOLESK          ITOLCH          10D-  4             ***   
       TRANGRAD             IRESRM         OFF         [  0]    ***   
       TRANS_INV            ITRAIN         USE         [  0]    ***   
       TREAT_PERT           ITREAT         SIMULTANEOUS[  0]    ***   
       TRIP_ALGORI          ITRALG         NORMAL      [  0]    ***   
       UIJ_THRESHO          IUIJTH              1               ***   
       UNITS                IUNITS         BOHR        [  1]    ***   
       UNOS                 IUNOS          OFF         [  0]    ***   
       UPDATE_HESS          IHUPDT         ON          [  1]    ***   
       VIBPHASE             ISETPH         STANDARD    [  0]    ***   
       VIBRATION            IVIB           NO          [  0]    ***   
       VIB_ALGORIT          IGEALG         STANDARD    [  0]    ***   
       VNATORB              IVNORB         OFF         [  0]    ***   
       VTRAN                IVTRAN         FULL/PARTIAL[  0]    ***   
       XFIELD               IXEFLD              0             x 10-6  
       XFORM_TOL            IXFTOL          10D- 11             ***   
       YFIELD               IYEFLD              0             x 10-6  
       ZFIELD               IZEFLD              0             x 10-6  
       ZSCALE_EXP           IZEXPS         OFF         [  0]    ***   
    -------------------------------------------------------------------
  @GETXYZ-I,     3 atoms read from ZMAT.
   Rotational constants (in cm-1): 
          8.8156904288            12.7761648580            28.4386924521
   Rotational constants (in MHz): 
     264287.7872882477        383019.8403189137        852570.6706952902
********************************************************************************
   The full molecular point group is C2v .
   The largest Abelian subgroup of the full molecular point group is C2v .
   The computational point group is C2v .
********************************************************************************


 ----------------------------------------------------------------
         Coordinates used in calculation (QCOMP) 
 ----------------------------------------------------------------
 Z-matrix   Atomic            Coordinates (in bohr)
  Symbol    Number           X              Y              Z
 ----------------------------------------------------------------
     H         1         0.00000000    -1.52893638    -0.96574430
     O         8         0.00000000     0.00000000     0.12170134
     H         1         0.00000000     1.52893638    -0.96574430
 ----------------------------------------------------------------
 
   Interatomic distance matrix (Angstroms) 
 
                 H             O             H    
                [ 1]        [ 2]        [ 3]
  H    [ 1]     0.00000
  O    [ 2]     0.99285     0.00000
  H    [ 3]     1.61816     0.99285     0.00000
 rotcon2
   Rotational constants (in cm-1): 
          8.8156904288            28.4386924521            12.7761648580
   Rotational constants (in MHz): 
     264287.7872882477        852570.6706952902        383019.8403189137
  There is   1 frozen-core orbital.
  There are   92 basis functions.
 @GEOPT-W, Archive file not created for single-point calculation.
 @CHECKOUT-I, Total execution time (CPU/WALL):        0.13/       0.17 seconds.
--executable xjoda finished with status     0 in        0.20 seconds (walltime).
 --invoking executable--
/home/qc/cfour_v2.1_intel_2017_eland2/bin/xvmol
 SERIAL VERSION OF MOLECULE STARTED
********************************************************************************
                    INPUT FROM MOL FILE
********************************************************************************
INTGRL        1    0    1    0    0    0    0    0    0                         
         *** CFOUR Program System (Release V0.1) ***                            
h2o AUG-PVTZ CC3                                                                
    2    2 X  Y       0.10E-08              0    0                              
   9999.00      3.00                                                            
          1.00000000    1    3    1    1    1                                   
H #1   0.000000000000000  -1.528936375000000  -0.965744298054673                
    6    4                                                                      
   33.8700000000000       6.068000000000000E-003  0.000000000000000E+000        
  0.000000000000000E+000  0.000000000000000E+000                                
   5.09500000000000       4.530800000000000E-002  0.000000000000000E+000        
  0.000000000000000E+000  0.000000000000000E+000                                
   1.15900000000000       0.202822000000000       0.000000000000000E+000        
  0.000000000000000E+000  0.000000000000000E+000                                
  0.325800000000000       0.503903000000000        1.00000000000000             
  0.000000000000000E+000  0.000000000000000E+000                                
  0.102700000000000       0.383421000000000       0.000000000000000E+000        
   1.00000000000000       0.000000000000000E+000                                
  2.526000000000000E-002  0.000000000000000E+000  0.000000000000000E+000        
  0.000000000000000E+000   1.00000000000000                                     
    3    3                                                                      
   1.40700000000000        1.00000000000000       0.000000000000000E+000        
  0.000000000000000E+000                                                        
  0.388000000000000       0.000000000000000E+000   1.00000000000000             
  0.000000000000000E+000                                                        
  0.102000000000000       0.000000000000000E+000  0.000000000000000E+000        
   1.00000000000000                                                             
    2    2                                                                      
   1.05700000000000        1.00000000000000       0.000000000000000E+000        
  0.247000000000000       0.000000000000000E+000   1.00000000000000             
          8.00000000    1    4    1    1    1    1                              
O #2   0.000000000000000   0.000000000000000   0.121701341145326                
   11    5                                                                      
   15330.0000000000       5.080000000000000E-004 -1.150000000000000E-004        
  0.000000000000000E+000  0.000000000000000E+000  0.000000000000000E+000        
   2299.00000000000       3.929000000000000E-003 -8.950000000000000E-004        
  0.000000000000000E+000  0.000000000000000E+000  0.000000000000000E+000        
   522.400000000000       2.024300000000000E-002 -4.636000000000000E-003        
  0.000000000000000E+000  0.000000000000000E+000  0.000000000000000E+000        
   147.300000000000       7.918100000000000E-002 -1.872400000000000E-002        
  0.000000000000000E+000  0.000000000000000E+000  0.000000000000000E+000        
   47.5500000000000       0.230687000000000      -5.846300000000000E-002        
  0.000000000000000E+000  0.000000000000000E+000  0.000000000000000E+000        
   16.7600000000000       0.433118000000000      -0.136463000000000             
  0.000000000000000E+000  0.000000000000000E+000  0.000000000000000E+000        
   6.20700000000000       0.350260000000000      -0.175740000000000             
  0.000000000000000E+000  0.000000000000000E+000  0.000000000000000E+000        
   1.75200000000000       4.272800000000000E-002  0.160934000000000             
   1.00000000000000       0.000000000000000E+000  0.000000000000000E+000        
  0.688200000000000      -8.154000000000000E-003  0.603418000000000             
  0.000000000000000E+000  0.000000000000000E+000  0.000000000000000E+000        
  0.238400000000000       2.381000000000000E-003  0.378765000000000             
  0.000000000000000E+000   1.00000000000000       0.000000000000000E+000        
  7.376000000000001E-002  0.000000000000000E+000  0.000000000000000E+000        
  0.000000000000000E+000  0.000000000000000E+000   1.00000000000000             
    6    4                                                                      
   34.4600000000000       1.592800000000000E-002  0.000000000000000E+000        
  0.000000000000000E+000  0.000000000000000E+000                                
   7.74900000000000       9.974000000000000E-002  0.000000000000000E+000        
  0.000000000000000E+000  0.000000000000000E+000                                
   2.28000000000000       0.310492000000000       0.000000000000000E+000        
  0.000000000000000E+000  0.000000000000000E+000                                
  0.715600000000000       0.491026000000000        1.00000000000000             
  0.000000000000000E+000  0.000000000000000E+000                                
  0.214000000000000       0.336337000000000       0.000000000000000E+000        
   1.00000000000000       0.000000000000000E+000                                
  5.974000000000000E-002  0.000000000000000E+000  0.000000000000000E+000        
  0.000000000000000E+000   1.00000000000000                                     
    3    3                                                                      
   2.31400000000000        1.00000000000000       0.000000000000000E+000        
  0.000000000000000E+000                                                        
  0.645000000000000       0.000000000000000E+000   1.00000000000000             
  0.000000000000000E+000                                                        
  0.214000000000000       0.000000000000000E+000  0.000000000000000E+000        
   1.00000000000000                                                             
    2    2                                                                      
   1.42800000000000        1.00000000000000       0.000000000000000E+000        
  0.500000000000000       0.000000000000000E+000   1.00000000000000             
FINISH                                                                          
 
********************************************************************************
 ONE- AND TWO-ELECTRON INTEGRALS OVER SYMMETRY-ADAPTED AOS ARE CALCULATED.

  SPHERICAL HARMONICS ARE USED.
  
  INTEGRALS LESS THAN  0.10E-13 ARE NEGLECTED.

  NUCLEAR REPULSION ENERGY :    8.8548299443 A.U.
  @MOLECU-I, ONE ELECTRON INTEGRALS (CPU/WALL):        0.02/       0.02 SECONDS.
  @TWOEL-I,     262932 INTEGRALS OF SYMMETRY TYPE  I I I I
  @TWOEL-I,     865293 INTEGRALS OF SYMMETRY TYPE  I J I J
  @TWOEL-I,     466389 INTEGRALS OF SYMMETRY TYPE  I I J J
  @TWOEL-I,     575256 INTEGRALS OF SYMMETRY TYPE  I J K L
  @TWOEL-I, TOTAL NUMBER OF 2-E INTEGRALS    2169870.
  @MOLECU-I, TWO ELECTRON INTEGRALS (CPU/WALL):        0.88/       0.88 SECONDS.
 @CHECKOUT-I, Total execution time (CPU/WALL):        0.91/       0.91 seconds.

OMP_NUM_THREADS not specified; defaulting to 1
Running with 1 threads/proc

--executable xvmol finished with status     0 in        0.94 seconds (walltime).
 --invoking executable--
/home/qc/cfour_v2.1_intel_2017_eland2/bin/xvmol2ja
 @GETMEM-I,  Allocated   30517 MB of main memory.
 @CHECKOUT-I, Total execution time (CPU/WALL):        0.02/       0.01 seconds.
--executable xvmol2ja finished with status     0 in        0.04 seconds (walltime).
 --invoking executable--
/home/qc/cfour_v2.1_intel_2017_eland2/bin/xvscf
  There are   92 functions in the AO basis.

  There are 4 irreducible representations.

       Irrep        # of functions
         1                 35
         2                 18
         3                 27
         4                 12


  Parameters for SCF calculation: 
        SCF reference function:  RHF  
  Maximum number of iterations:  150
     Full symmetry point group: C2v 
     Computational point group: C2v 
        Initial density matrix: MOREAD                 
     SCF convergence tolerance: 10**(- 9)
  DIIS convergence acceleration:  ON
          Latest start for DIIS:   8
                     DIIS order:   6

  Memory information:     401180 words required.
  Fock matrices are constructed from AO integral file.
 @GETMEM-I,  Allocated       3 MB of main memory.
  Initialization and symmetry analysis required      0.001 seconds.

  @INITGES-I, Occupancies from core Hamiltonian:

          Alpha population by irrep:   3    1    1    0
           Beta population by irrep:   3    1    1    0


 total no. of electrons in initial guess :  0.000000000000000E+000
  --------------------------------------------------------------------
  Iteration         Total Energy            Largest Density Difference
  --------------------------------------------------------------------
       0             8.854829944321626              0.0000000000D+00
   current occupation vector 
     3  1  1  0
     3  1  1  0
       1           -61.254822814521461              0.1230174983D+02
   current occupation vector 
     3  1  1  0
     3  1  1  0
       2           -63.683371677176993              0.2966600225D+02
   current occupation vector 
     3  0  2  0
     3  0  2  0
       3           -70.807236987964004              0.2966620966D+02
   current occupation vector 
     3  1  1  0
     3  1  1  0
       4           -67.802823821815508              0.2543863639D+02
   current occupation vector 
     3  0  2  0
     3  0  2  0
       5           -72.174844008602321              0.2543818389D+02
   current occupation vector 
     3  1  1  0
     3  1  1  0
       6           -68.774650277288544              0.2385702204D+02
   current occupation vector 
     3  0  2  0
     3  0  2  0
       7           -72.546188232534703              0.2385715733D+02
   current occupation vector 
     3  1  1  0
     3  1  1  0
       8           -69.040193042248418              0.2345848026D+02
   current occupation vector 
     3  0  2  0
     3  0  2  0
       9           -75.771998252599246              0.2345940982D+02
   current occupation vector 
     3  1  1  0
     3  1  1  0
      10           -76.045503717789245              0.5203925795D+00
   current occupation vector 
     3  1  1  0
     3  1  1  0
      11           -76.055289711149712              0.8649432371D-01
   current occupation vector 
     3  1  1  0
     3  1  1  0
      12           -76.055413114116206              0.1150560065D-01
   current occupation vector 
     3  1  1  0
     3  1  1  0
      13           -76.055424467197312              0.3884976302D-02
   current occupation vector 
     3  1  1  0
     3  1  1  0
      14           -76.055426321432279              0.2290844764D-02
   current occupation vector 
     3  1  1  0
     3  1  1  0
      15           -76.055426354671653              0.3393863241D-03
   current occupation vector 
     3  1  1  0
     3  1  1  0
      16           -76.055426355261631              0.2981887823D-04
   current occupation vector 
     3  1  1  0
     3  1  1  0
      17           -76.055426355330667              0.1531008606D-04
   current occupation vector 
     3  1  1  0
     3  1  1  0
      18           -76.055426355332571              0.2867909134D-05
   current occupation vector 
     3  1  1  0
     3  1  1  0
      19           -76.055426355332116              0.3104830866D-06
   current occupation vector 
     3  1  1  0
     3  1  1  0
      20           -76.055426355332202              0.3349487807D-07
   current occupation vector 
     3  1  1  0
     3  1  1  0
      21           -76.055426355332642              0.7700966337D-08
   current occupation vector 
     3  1  1  0
     3  1  1  0
      22           -76.055426355332386              0.1015582951D-08
   current occupation vector 
     3  1  1  0
     3  1  1  0

  SCF has converged.

 Density matrix saved to file den.dat
 total electron number:   9.99999999999999     
     E(SCF)=       -76.055426355332457              0.4105258633D-09

  Eigenvector printing suppressed.

 @PUTMOS-I, Writing converged MOs to NEWMOS. 
 @PUTMOS-I, Symmetry   1 Full Blocks  8 Partial Blocksize   3
 @PUTMOS-I, Symmetry   2 Full Blocks  4 Partial Blocksize   2
 @PUTMOS-I, Symmetry   3 Full Blocks  6 Partial Blocksize   3
 @PUTMOS-I, Symmetry   4 Full Blocks  3 Partial Blocksize   0
 @PUTFOCK-I, Writing converged Fock matrix to NEWFOCK. 
 @PUTFOCK-I, Symmetry   1 Full Blocks  8 Partial Blocksize   3
 @PUTFOCK-I, Symmetry   2 Full Blocks  4 Partial Blocksize   2
 @PUTFOCK-I, Symmetry   3 Full Blocks  6 Partial Blocksize   3
 @PUTFOCK-I, Symmetry   4 Full Blocks  3 Partial Blocksize   0


 
  ORBITAL EIGENVALUES (ALPHA)  (1H = 27.2113834 eV)

       MO #        E(hartree)               E(eV)           FULLSYM    COMPSYM
       ----   --------------------   --------------------   -------   ---------
    1     1         -20.5710863121        -559.7677165942      A1        A1 (1)
    2     2          -1.3329201161         -36.2706003220      A1        A1 (1)
    3    54          -0.7068655679         -19.2347899811      B2        B2 (3)
    4     3          -0.5692594883         -15.4903381891      A1        A1 (1)
    5    36          -0.5060609783         -13.7706193041      B1        B1 (2)
  +++++++++++++++++++++++++++++++++++++++++++++++++++++++++++++++++++++++++++++
    6     4           0.0292373061           0.7955875457      A1        A1 (1)
    7    55           0.0472396152           1.2854552819      B2        B2 (3)
    8     5           0.1363895900           3.7113494258      A1        A1 (1)
    9    37           0.1595574866           4.3417799424      B1        B1 (2)
   10     6           0.1726149291           4.6970910169      A1        A1 (1)
   11    56           0.1818069964           4.9472198838      B2        B2 (3)
   12    57           0.2259358224           6.1480262866      B2        B2 (3)
   13     7           0.2428123625           6.6072602894      A1        A1 (1)
   14    81           0.2632161394           7.1624752861      A2        A2 (4)
   15    38           0.3038675441           8.2686562444      B1        B1 (2)
   16     8           0.3123988913           8.5008060060      A1        A1 (1)
   17    58           0.3641862043           9.9100104347      B2        B2 (3)
   18     9           0.4300124007          11.7012323019      A1        A1 (1)
   19    59           0.4601649360          12.5217245001      B2        B2 (3)
   20    60           0.6007659007          16.3476712573      B2        B2 (3)
   21    10           0.6497444331          17.6804448823      A1        A1 (1)
   22    11           0.7108041868          19.3419652497      A1        A1 (1)
   23    82           0.7194452684          19.5771010350      A2        A2 (4)
   24    39           0.7321719273          19.9234110274      B1        B1 (2)
   25    12           0.8154199670          22.1887053549      A1        A1 (1)
   26    40           0.8397895193          22.8518345844      B1        B1 (2)
   27    13           0.8972080010          24.4142709038      A1        A1 (1)
   28    61           0.9049892337          24.6260090102      B2        B2 (3)
   29    83           0.9155783902          24.9141546081      A2        A2 (4)
   30    62           0.9261853070          25.2027834888      B2        B2 (3)
   31    41           0.9295517176          25.2943881766      B1        B1 (2)
   32    14           0.9693187215          26.3765033674      A1        A1 (1)
   33    15           1.0105457667          27.4983483002      A1        A1 (1)
   34    63           1.0337682612          28.1302645033      B2        B2 (3)
   35    42           1.0796500525          29.3787715165      B1        B1 (2)
   36    64           1.1067303455          30.1156637506      B2        B2 (3)
   37    84           1.1624087743          31.6307508257      A2        A2 (4)
   38    16           1.1628171185          31.6418624352      A1        A1 (1)
   39    65           1.2725869257          34.6288507459      B2        B2 (3)
   40    85           1.5040497911          40.9272755187      A2        A2 (4)
   41    43           1.5764563435          42.8975579771      B1        B1 (2)
   42    17           1.5772841359          42.9200833537      A1        A1 (1)
   43    66           1.7473849878          47.5487628505      B2        B2 (3)
   44    18           1.8128287609          49.3295784521      A1        A1 (1)
   45    67           1.9612850702          53.3692800012      B2        B2 (3)
   46    19           2.0791478613          56.5764895979      A1        A1 (1)
   47    44           2.2543770892          61.3447193037      B1        B1 (2)
   48    86           2.3097577094          62.8517025926      A2        A2 (4)
   49    20           2.3245190279          63.2533784888      A1        A1 (1)
   50    21           2.4013136245          65.3430656992      A1        A1 (1)
   51    45           2.4032768673          65.3964882533      B1        B1 (2)
   52    68           2.4389235264          66.3664831608      B2        B2 (3)
   53    22           2.4857275052          67.6400841708      A1        A1 (1)
   54    46           2.7123735420          73.8074363749      B1        B1 (2)
   55    69           2.7137252818          73.8442190849      B2        B2 (3)
   56    23           2.7257367744          74.1710684152      A1        A1 (1)
   57    70           2.8579025309          77.7674814873      B2        B2 (3)
   58    87           2.8625016320          77.8926293901      A2        A2 (4)
   59    71           3.5788503296          97.3854684497      B2        B2 (3)
   60    24           3.7197096184         101.2184445642      A1        A1 (1)
   61    88           3.9794186609         108.2854868899      A2        A2 (4)
   62    47           4.0499983369         110.2060575143      B1        B1 (2)
   63    72           4.1788108417         113.7112239708      B2        B2 (3)
   64    25           4.1792216915         113.7224037602      A1        A1 (1)
   65    48           4.3076675039         117.2175920072      B1        B1 (2)
   66    89           4.3674586010         118.8445904756      A2        A2 (4)
   67    49           4.3735691864         119.0108679580      B1        B1 (2)
   68    26           4.4512116589         121.1236270446      A1        A1 (1)
   69    73           4.4608120751         121.3848676517      B2        B2 (3)
   70    27           4.6492342252         126.5120950177      A1        A1 (1)
   71    74           4.7114060581         128.2038766006      B2        B2 (3)
   72    75           5.0279815955         136.8183349235      B2        B2 (3)
   73    90           5.0815612688         138.2763119570      A2        A2 (4)
   74    28           5.1907145862         141.2465247246      A1        A1 (1)
   75    76           5.2560034888         143.0231260847      B2        B2 (3)
   76    50           5.3989349909         146.9124899885      B1        B1 (2)
   77    29           5.6597585393         154.0098595651      A1        A1 (1)
   78    30           6.0686506993         165.1363809005      A1        A1 (1)
   79    77           6.5509225754         178.2596658225      B2        B2 (3)
   80    51           6.6959746776         182.2067341887      B1        B1 (2)
   81    31           6.7971206432         184.9590558380      A1        A1 (1)
   82    52           7.1073491085         193.4008015496      B1        B1 (2)
   83    91           7.2138785260         196.2996143725      A2        A2 (4)
   84    53           7.2224954712         196.5340933706      B1        B1 (2)
   85    32           7.2792552898         198.0786065583      A1        A1 (1)
   86    78           7.3133206451         199.0055720001      B2        B2 (3)
   87    92           7.3637548494         200.3779564695      A2        A2 (4)
   88    33           7.4524141500         202.7904986924      A1        A1 (1)
   89    79           7.7860509526         211.8692176418      B2        B2 (3)
   90    34           7.8990524009         214.9441433777      A1        A1 (1)
   91    80           8.5891949300         233.7238763377      B2        B2 (3)
   92    35          14.8213191968         403.3085991586      A1        A1 (1)


  VSCF finished.

 @CHECKOUT-I, Total execution time (CPU/WALL):        0.82/       0.57 seconds.
--executable xvscf finished with status     0 in        0.60 seconds (walltime).
 --invoking executable--
/home/qc/cfour_v2.1_intel_2017_eland2/bin/xvtran
 @GETMEM-I,  Allocated   30517 MB of main memory.
  Full RHF integral transformation
  The following   1 MOs will be dropped:
    1
  There are  91 active molecular orbitals.
  Transformation of IIII integrals :
  1 pass through the AO integral file was required.
      262932 AO integrals were read.
      266728 MO integrals were written to HF2.
  Transformation of IIJJ integrals :
  1 pass through the AO integral file was required.
      466389 AO integrals were read.
      480525 MO integrals were written to HF2.
  Transformation of IJIJ integrals :
  1 pass through the AO integral file was required.
      865293 AO integrals were read.
      887262 MO integrals were written to HF2.
  Transformation of IJKL integrals :
  1 pass through the AO integral file was required.
      575256 AO integrals were read.
      594864 MO integrals were written to HF2.
  Summary of active molecular orbitals: 
------------------------------------------------------------------------
 
  Index      Eigenvalue    Symmetry    Index      Eigenvalue    Symmetry
------------------------------------------------------------------------
     1        -1.3329201        1        47         4.0499983        2
     2        -0.5692595        1        48         4.3076675        2
     3        -0.5060610        2        49         4.3735692        2
     4        -0.7068656        3        50         5.3989350        2
     5         0.0292373        1        51         6.6959747        2
     6         0.1363896        1        52         7.1073491        2
     7         0.1726149        1        53         7.2224955        2
     8         0.2428124        1        54         0.0472396        3
     9         0.3123989        1        55         0.1818070        3
    10         0.4300124        1        56         0.2259358        3
    11         0.6497444        1        57         0.3641862        3
    12         0.7108042        1        58         0.4601649        3
    13         0.8154200        1        59         0.6007659        3
    14         0.8972080        1        60         0.9049892        3
    15         0.9693187        1        61         0.9261853        3
    16         1.0105458        1        62         1.0337683        3
    17         1.1628171        1        63         1.1067303        3
    18         1.5772841        1        64         1.2725869        3
    19         1.8128288        1        65         1.7473850        3
    20         2.0791479        1        66         1.9612851        3
    21         2.3245190        1        67         2.4389235        3
    22         2.4013136        1        68         2.7137253        3
    23         2.4857275        1        69         2.8579025        3
    24         2.7257368        1        70         3.5788503        3
    25         3.7197096        1        71         4.1788108        3
    26         4.1792217        1        72         4.4608121        3
    27         4.4512117        1        73         4.7114061        3
    28         4.6492342        1        74         5.0279816        3
    29         5.1907146        1        75         5.2560035        3
    30         5.6597585        1        76         6.5509226        3
    31         6.0686507        1        77         7.3133206        3
    32         6.7971206        1        78         7.7860510        3
    33         7.2792553        1        79         8.5891949        3
    34         7.4524142        1        80         0.2632161        4
    35         7.8990524        1        81         0.7194453        4
    36        14.8213192        1        82         0.9155784        4
    37         0.1595575        2        83         1.1624088        4
    38         0.3038675        2        84         1.5040498        4
    39         0.7321719        2        85         2.3097577        4
    40         0.8397895        2        86         2.8625016        4
    41         0.9295517        2        87         3.9794187        4
    42         1.0796501        2        88         4.3674586        4
    43         1.5764563        2        89         5.0815613        4
    44         2.2543771        2        90         7.2138785        4
    45         2.4032769        2        91         7.3637548        4
    46         2.7123735        2
------------------------------------------------------------------------
  -1.33292011614417      -0.569259488258973      -0.506060978291547     
 -0.706865567927378       2.923730609255316E-002  0.136389590019111     
  0.172614929121329       0.242812362467425       0.312398891340395     
  0.430012400687219       0.649744433142724       0.710804186814807     
  0.815419967030872       0.897208000965057       0.969318721495520     
   1.01054576667460        1.16281711848427        1.57728413593591     
   1.81282876092683        2.07914786125459        2.32451902789910     
   2.40131362447322        2.48572750515733        2.72573677438169     
   3.71970961844566        4.17922169147147        4.45121165889053     
   4.64923422517764        5.19071458618265        5.65975853933063     
   6.06865069934122        6.79712064319249        7.27925528983804     
   7.45241415004199        7.89905240090381        14.8213191968251     
  0.159557486605343       0.303867544067380       0.732171927261100     
  0.839789519280016       0.929551717556309        1.07965005250376     
   1.57645634352659        2.25437708924740        2.40327686733039     
   2.71237354198390        4.04999833688531        4.30766750385924     
   4.37356918641509        5.39893499087868        6.69597467759427     
   7.10734910851977        7.22249547116530       4.723961523584849E-002
  0.181806996397610       0.225935822380606       0.364186204317992     
  0.460164935977111       0.600765900689232       0.904989233668881     
  0.926185307020879        1.03376826123711        1.10673034545714     
   1.27258692573305        1.74738498780228        1.96128507017478     
   2.43892352642296        2.71372528178375        2.85790253086933     
   3.57885032958966        4.17881084174497        4.46081207513056     
   4.71140605812162        5.02798159550593        5.25600348877063     
   6.55092257538532        7.31332064506762        7.78605095255220     
   8.58919493000582       0.263216139393206       0.719445268447798     
  0.915578390184636        1.16240877432528        1.50404979111358     
   2.30975770943689        2.86250163195012        3.97941866086309     
   4.36745860100541        5.08156126884167        7.21387852601938     
   7.36375484935791     
 @CHECKOUT-I, Total execution time (CPU/WALL):        1.04/       0.58 seconds.
--executable xvtran finished with status     0 in        0.61 seconds (walltime).
 --invoking executable--
/home/qc/cfour_v2.1_intel_2017_eland2/bin/xintprc
 @GETMEM-I,  Allocated   30517 MB of main memory.
  @GMOIAA-I, Processing MO integrals for spin case AA.
  @GMOIAA-I, Generation of integral list completed.
                      TYPE                NUMBER
                      ----               --------
                      PPPP               1862118
                      PPPH                340336
                      PPHH                 15793
                      PHPH                 10160
                      PHHH                   950
                      HHHH                    22

                     TOTAL               2229379

  @FORMT2-I, Second-order MP correlation energies:
            ------------------------------------------------
            E(SCF)                  =    -76.055426355332 a.u.
            E2(AA)                  =     -0.032857283706 a.u.
            E2(AB)                  =     -0.205190702186 a.u.
            E2(TOT)                 =     -0.270905269597 a.u.
            Total MP2 energy        =    -76.326331624930 a.u.
            ------------------------------------------------
   Largest T2 amplitudes for spin case AB:
       _       _                 _       _                 _       _
   i   j   a   b             i   j   a   b             i   j   a   b
-----------------------------------------------------------------------------
[  4   4  58  58]-0.02097 [  2   2  14  14]-0.01925 [  3   3  42  42]-0.01595
[  3   3  41  41]-0.01455 [  4   2  58  14]-0.01390 [  2   4  14  58]-0.01390
[  4   4  62  58]-0.01363 [  4   4  58  62]-0.01363 [  3   3  42  41]-0.01319
[  3   3  41  42]-0.01319 [  2   3  14  41]-0.01288 [  3   2  41  14]-0.01288
[  4   4  59  59]-0.01275 [  4   4  58  55]-0.01273 [  4   4  55  58]-0.01273
-----------------------------------------------------------------------------
   Norm of T2AB vector (    31238 symmetry allowed elements):  0.2213940589.
-----------------------------------------------------------------------------
 @CHECKOUT-I, Total execution time (CPU/WALL):        0.60/       0.41 seconds.
--executable xintprc finished with status     0 in        0.45 seconds (walltime).
  calling xvcc 
 --invoking executable--
/home/qc/cfour_v2.1_intel_2017_eland2/bin/xvcc
 @GETMEM-I,  Allocated   30517 MB of main memory.
   CC3 energy will be calculated.
   The total correlation energy is -0.270905269597 a.u.
   The total correlation energy is -0.278651124182 a.u.
  Convergence information after     1 iterations: 
  Largest element of residual vector :  0.10109062E-01.
  Largest element of DIIS residual   :  0.10109062E-01.
   The total correlation energy is -0.283376409078 a.u.
  Convergence information after     2 iterations: 
  Largest element of residual vector :  0.15758607E-02.
  Largest element of DIIS residual   : -0.17574898E-02.
   The total correlation energy is -0.284272905488 a.u.
  Convergence information after     3 iterations: 
  Largest element of residual vector :  0.18035524E-02.
  Largest element of DIIS residual   :  0.11328690E-02.
   The total correlation energy is -0.284753936033 a.u.
  Convergence information after     4 iterations: 
  Largest element of residual vector :  0.25695858E-03.
  Largest element of DIIS residual   : -0.13649958E-03.
   The total correlation energy is -0.284789466800 a.u.
  Convergence information after     5 iterations: 
  Largest element of residual vector :  0.14589598E-03.
  Largest element of DIIS residual   :  0.68864955E-04.
   The total correlation energy is -0.284792721007 a.u.
  Convergence information after     6 iterations: 
  Largest element of residual vector :  0.33173757E-04.
  Largest element of DIIS residual   :  0.23965760E-04.
   The total correlation energy is -0.284792014451 a.u.
  Convergence information after     7 iterations: 
  Largest element of residual vector :  0.17418694E-04.
  Largest element of DIIS residual   :  0.10074135E-04.
   The total correlation energy is -0.284791945318 a.u.
  Convergence information after     8 iterations: 
  Largest element of residual vector :  0.49440520E-05.
  Largest element of DIIS residual   :  0.27022434E-05.
   The total correlation energy is -0.284792173408 a.u.
  Convergence information after     9 iterations: 
  Largest element of residual vector :  0.18107500E-05.
  Largest element of DIIS residual   : -0.13329057E-05.
   The total correlation energy is -0.284792200734 a.u.
  Convergence information after    10 iterations: 
  Largest element of residual vector :  0.59577801E-06.
  Largest element of DIIS residual   :  0.35853011E-06.
   The total correlation energy is -0.284792214275 a.u.
  Convergence information after    11 iterations: 
  Largest element of residual vector : -0.19899735E-06.
  Largest element of DIIS residual   : -0.89507531E-07.
   The total correlation energy is -0.284792216943 a.u.
  Convergence information after    12 iterations: 
  Largest element of residual vector :  0.57796688E-07.
  Largest element of DIIS residual   :  0.25791885E-07.
   The total correlation energy is -0.284792217563 a.u.
  Convergence information after    13 iterations: 
  Largest element of residual vector :  0.10875204E-07.
  Largest element of DIIS residual   :  0.79001108E-08.
   The total correlation energy is -0.284792217942 a.u.
  Convergence information after    14 iterations: 
  Largest element of residual vector :  0.69329808E-08.
  Largest element of DIIS residual   :  0.34403280E-08.
   The total correlation energy is -0.284792218172 a.u.
  Convergence information after    15 iterations: 
  Largest element of residual vector :  0.22385770E-08.
  Largest element of DIIS residual   :  0.12985353E-08.
   The total correlation energy is -0.284792218219 a.u.
  Convergence information after    16 iterations: 
  Largest element of residual vector :  0.94446069E-09.
  Largest element of DIIS residual   :  0.30551543E-09.
  Amplitude equations converged in    16iterations.
   The total correlation energy is -0.284792218227 a.u.
   The CC iterations have converged.

   Largest T1 amplitudes for spin case AA:
   i       a                 i       a                 i       a    
-----------------------------------------------------------------------------
[  3      37    ] 0.01498 [  3      38    ]-0.01256 [  2       6    ] 0.00873
[  2       9    ] 0.00781 [  4      66    ]-0.00532 [  3      47    ]-0.00390
[  2       5    ] 0.00381 [  3      40    ] 0.00370 [  4      62    ]-0.00340
[  4      73    ]-0.00336 [  2      20    ]-0.00334 [  2      28    ]-0.00330
[  3      41    ] 0.00289 [  1      14    ]-0.00272 [  2      13    ] 0.00266
-----------------------------------------------------------------------------
   Norm of T1AA vector (      107 symmetry allowed elements):  0.0278370668.
-----------------------------------------------------------------------------
   Largest T2 amplitudes for spin case AB:
       _       _                 _       _                 _       _
   i   j   a   b             i   j   a   b             i   j   a   b
-----------------------------------------------------------------------------
[  4   4  58  58]-0.02411 [  2   2  14  14]-0.02107 [  3   3  42  42]-0.01689
[  4   4  62  58]-0.01574 [  4   4  58  62]-0.01574 [  3   3  41  41]-0.01559
[  4   4  59  59]-0.01511 [  3   3  37  37]-0.01452 [  3   3  42  41]-0.01440
[  3   3  41  42]-0.01440 [  2   2  59  59]-0.01436 [  4   4  58  55]-0.01433
[  4   4  55  58]-0.01433 [  4   2  58  14]-0.01395 [  2   4  14  58]-0.01395
-----------------------------------------------------------------------------
   Norm of T2AB vector (    31238 symmetry allowed elements):  0.2488458197.
-----------------------------------------------------------------------------
       Summary of iterative solution of CC equations 
      -----------------------------------------------------------
                       Correlation           Total
       Iteration         Energy              Energy
      -----------------------------------------------------------
            0        -0.270905269597     -76.326331624930  DIIS 
            1        -0.278651124182     -76.334077479514  DIIS 
            2        -0.283376409078     -76.338802764410  DIIS 
            3        -0.284272905488     -76.339699260820  DIIS 
            4        -0.284753936033     -76.340180291366  DIIS 
            5        -0.284789466800     -76.340215822133  DIIS 
            6        -0.284792721007     -76.340219076339  DIIS 
            7        -0.284792014451     -76.340218369784  DIIS 
            8        -0.284791945318     -76.340218300650  DIIS 
            9        -0.284792173408     -76.340218528740  DIIS 
           10        -0.284792200734     -76.340218556067  DIIS 
           11        -0.284792214275     -76.340218569607  DIIS 
           12        -0.284792216943     -76.340218572275  DIIS 
           13        -0.284792217563     -76.340218572896  DIIS 
           14        -0.284792217942     -76.340218573274  DIIS 
           15        -0.284792218172     -76.340218573505  DIIS 
           16        -0.284792218227     -76.340218573559  DIIS 
      -----------------------------------------------------------
      A miracle has come to pass. The CC iterations have converged.
      The reference energy is       -76.05542635533246 a.u.
      The correlation energy is      -0.28479221822656 a.u.
      The total energy is           -76.34021857355903 a.u.
 @CHECKOUT-I, Total execution time (CPU/WALL):       29.11/      14.58 seconds.
--executable xvcc finished with status     0 in       14.67 seconds (walltime).
 --invoking executable--
/home/qc/cfour_v2.1_intel_2017_eland2/bin/xlambda
 @GETMEM-I,  Allocated   30517 MB of main memory.
 Hbar is calculated for a CCSD wave function.
 Calculation of Hbar completed.
 @CHECKOUT-I, Total execution time (CPU/WALL):        0.50/       0.28 seconds.
--executable xlambda finished with status     0 in        0.33 seconds (walltime).
 --invoking executable--
/home/qc/cfour_v2.1_intel_2017_eland2/bin/xvip
 @GETMEM-I,  Allocated   30517 MB of main memory.
 IPs are calculated using the EOMIP-CCSD method.
  Summary of active alpha molecular orbitals:
------------------------------------------------------------------------------
Orbital Symm. Eigenvalue  <xx>     <yy>     <zz>     <xy>     <xz>     <yz>
------------------------------------------------------------------------------
    1     1      -1.3329   0.000    0.000    0.000    0.000    0.000    0.000
    2     1      -0.5693   0.000    0.000    0.000    0.000    0.000    0.000
    3     2      -0.5061   0.000    0.000    0.000    0.000    0.000    0.000
    4     3      -0.7069   0.000    0.000    0.000    0.000    0.000    0.000
    5     1       0.0292   0.000    0.000    0.000    0.000    0.000    0.000
    6     1       0.1364   0.000    0.000    0.000    0.000    0.000    0.000
    7     1       0.1726   0.000    0.000    0.000    0.000    0.000    0.000
    8     1       0.2428   0.000    0.000    0.000    0.000    0.000    0.000
    9     1       0.3124   0.000    0.000    0.000    0.000    0.000    0.000
   10     1       0.4300   0.000    0.000    0.000    0.000    0.000    0.000
   11     1       0.6497   0.000    0.000    0.000    0.000    0.000    0.000
   12     1       0.7108   0.000    0.000    0.000    0.000    0.000    0.000
   13     1       0.8154   0.000    0.000    0.000    0.000    0.000    0.000
   14     1       0.8972   0.000    0.000    0.000    0.000    0.000    0.000
   15     1       0.9693   0.000    0.000    0.000    0.000    0.000    0.000
   16     1       1.0105   0.000    0.000    0.000    0.000    0.000    0.000
   17     1       1.1628   0.000    0.000    0.000    0.000    0.000    0.000
   18     1       1.5773   0.000    0.000    0.000    0.000    0.000    0.000
   19     1       1.8128   0.000    0.000    0.000    0.000    0.000    0.000
   20     1       2.0791   0.000    0.000    0.000    0.000    0.000    0.000
   21     1       2.3245   0.000    0.000    0.000    0.000    0.000    0.000
   22     1       2.4013   0.000    0.000    0.000    0.000    0.000    0.000
   23     1       2.4857   0.000    0.000    0.000    0.000    0.000    0.000
   24     1       2.7257   0.000    0.000    0.000    0.000    0.000    0.000
   25     1       3.7197   0.000    0.000    0.000    0.000    0.000    0.000
   26     1       4.1792   0.000    0.000    0.000    0.000    0.000    0.000
   27     1       4.4512   0.000    0.000    0.000    0.000    0.000    0.000
   28     1       4.6492   0.000    0.000    0.000    0.000    0.000    0.000
   29     1       5.1907   0.000    0.000    0.000    0.000    0.000    0.000
   30     1       5.6598   0.000    0.000    0.000    0.000    0.000    0.000
   31     1       6.0687   0.000    0.000    0.000    0.000    0.000    0.000
   32     1       6.7971   0.000    0.000    0.000    0.000    0.000    0.000
   33     1       7.2793   0.000    0.000    0.000    0.000    0.000    0.000
   34     1       7.4524   0.000    0.000    0.000    0.000    0.000    0.000
   35     1       7.8991   0.000    0.000    0.000    0.000    0.000    0.000
   36     1      14.8213   0.000    0.000    0.000    0.000    0.000    0.000
   37     2       0.1596   0.000    0.000    0.000    0.000    0.000    0.000
   38     2       0.3039   0.000    0.000    0.000    0.000    0.000    0.000
   39     2       0.7322   0.000    0.000    0.000    0.000    0.000    0.000
   40     2       0.8398   0.000    0.000    0.000    0.000    0.000    0.000
   41     2       0.9296   0.000    0.000    0.000    0.000    0.000    0.000
   42     2       1.0797   0.000    0.000    0.000    0.000    0.000    0.000
   43     2       1.5765   0.000    0.000    0.000    0.000    0.000    0.000
   44     2       2.2544   0.000    0.000    0.000    0.000    0.000    0.000
   45     2       2.4033   0.000    0.000    0.000    0.000    0.000    0.000
   46     2       2.7124   0.000    0.000    0.000    0.000    0.000    0.000
   47     2       4.0500   0.000    0.000    0.000    0.000    0.000    0.000
   48     2       4.3077   0.000    0.000    0.000    0.000    0.000    0.000
   49     2       4.3736   0.000    0.000    0.000    0.000    0.000    0.000
   50     2       5.3989   0.000    0.000    0.000    0.000    0.000    0.000
   51     2       6.6960   0.000    0.000    0.000    0.000    0.000    0.000
   52     2       7.1073   0.000    0.000    0.000    0.000    0.000    0.000
   53     2       7.2225   0.000    0.000    0.000    0.000    0.000    0.000
   54     3       0.0472   0.000    0.000    0.000    0.000    0.000    0.000
   55     3       0.1818   0.000    0.000    0.000    0.000    0.000    0.000
   56     3       0.2259   0.000    0.000    0.000    0.000    0.000    0.000
   57     3       0.3642   0.000    0.000    0.000    0.000    0.000    0.000
   58     3       0.4602   0.000    0.000    0.000    0.000    0.000    0.000
   59     3       0.6008   0.000    0.000    0.000    0.000    0.000    0.000
   60     3       0.9050   0.000    0.000    0.000    0.000    0.000    0.000
   61     3       0.9262   0.000    0.000    0.000    0.000    0.000    0.000
   62     3       1.0338   0.000    0.000    0.000    0.000    0.000    0.000
   63     3       1.1067   0.000    0.000    0.000    0.000    0.000    0.000
   64     3       1.2726   0.000    0.000    0.000    0.000    0.000    0.000
   65     3       1.7474   0.000    0.000    0.000    0.000    0.000    0.000
   66     3       1.9613   0.000    0.000    0.000    0.000    0.000    0.000
   67     3       2.4389   0.000    0.000    0.000    0.000    0.000    0.000
   68     3       2.7137   0.000    0.000    0.000    0.000    0.000    0.000
   69     3       2.8579   0.000    0.000    0.000    0.000    0.000    0.000
   70     3       3.5789   0.000    0.000    0.000    0.000    0.000    0.000
   71     3       4.1788   0.000    0.000    0.000    0.000    0.000    0.000
   72     3       4.4608   0.000    0.000    0.000    0.000    0.000    0.000
   73     3       4.7114   0.000    0.000    0.000    0.000    0.000    0.000
   74     3       5.0280   0.000    0.000    0.000    0.000    0.000    0.000
   75     3       5.2560   0.000    0.000    0.000    0.000    0.000    0.000
   76     3       6.5509   0.000    0.000    0.000    0.000    0.000    0.000
   77     3       7.3133   0.000    0.000    0.000    0.000    0.000    0.000
   78     3       7.7861   0.000    0.000    0.000    0.000    0.000    0.000
   79     3       8.5892   0.000    0.000    0.000    0.000    0.000    0.000
   80     4       0.2632   0.000    0.000    0.000    0.000    0.000    0.000
   81     4       0.7194   0.000    0.000    0.000    0.000    0.000    0.000
   82     4       0.9156   0.000    0.000    0.000    0.000    0.000    0.000
   83     4       1.1624   0.000    0.000    0.000    0.000    0.000    0.000
   84     4       1.5040   0.000    0.000    0.000    0.000    0.000    0.000
   85     4       2.3098   0.000    0.000    0.000    0.000    0.000    0.000
   86     4       2.8625   0.000    0.000    0.000    0.000    0.000    0.000
   87     4       3.9794   0.000    0.000    0.000    0.000    0.000    0.000
   88     4       4.3675   0.000    0.000    0.000    0.000    0.000    0.000
   89     4       5.0816   0.000    0.000    0.000    0.000    0.000    0.000
   90     4       7.2139   0.000    0.000    0.000    0.000    0.000    0.000
   91     4       7.3638   0.000    0.000    0.000    0.000    0.000    0.000
------------------------------------------------------------------------------
  nsizec is                    331
  @DOEOMIP2-I, right-hand eigenvectors will be computed.
  Beginning symmetry block   2.   1 roots requested.
  1   1  0.5854604521D+00  0.1593118883D+02  0.0000000000D+00  0.4601792195D+00
  2   2  0.5283313814D+00  0.1437662778D+02  0.9945152486D+00  0.8895773772D-01
  3   3  0.5077925492D+00  0.1381773775D+02  0.9968381144D+00  0.2135354856D-01
  4   4  0.5068117033D+00  0.1379104757D+02  0.9998706320D+00  0.4149120627D-02
  L-O-C-K-I-N-G O-N R-O-O-T 
  5   5  0.5067030459D+00  0.1378809085D+02  0.9999966307D+00  0.1009049230D-02
  6   6  0.5066975321D+00  0.1378794081D+02  0.9999997828D+00  0.1779733514D-03
  7   7  0.5066977225D+00  0.1378794599D+02  0.9999999911D+00  0.4746407395D-04
  8   8  0.5066972885D+00  0.1378793418D+02  0.9999999995D+00  0.8643262967D-05
  9   9  0.5066973462D+00  0.1378793576D+02  0.1000000000D+01  0.2086533807D-05
 10  10  0.5066973386D+00  0.1378793555D+02  0.1000000000D+01  0.3927078830D-06
 11  11  0.5066973409D+00  0.1378793561D+02  0.1000000000D+01  0.6830603654D-07
 12  12  0.5066973408D+00  0.1378793561D+02  0.1000000000D+01  0.1172027600D-07
 13  13  0.5066973408D+00  0.1378793561D+02  0.1000000000D+01  0.2210093996D-08
 14  14  0.5066973408D+00  0.1378793561D+02  0.1000000000D+01  0.3646283583D-09
 15  15  0.5066973408D+00  0.1378793561D+02  0.1000000000D+01  0.7117063069D-10
  Converged eigenvalue:   0.506697340814789       a.u.
   Total EOMIP-CCSD electronic energy     -75.83352123274423 a.u.
          --------------------------------
             I    J    A       C(IJA)
          --------------------------------
              0    3    0   -0.6977877482
              3    3   37    0.0370262134
              3    3   41    0.0312793263
              3    3   42    0.0274272189
              4    3   58    0.0272769047
              3    3   38   -0.0265297204
              2    3   14    0.0236320509
              2    3    6    0.0225533889
              4    3   55    0.0216407115
              2    3    9    0.0203435342
              3    3   40    0.0168957300
              1    3   10    0.0159192320
              4    3   62    0.0150439702
              1    3    7    0.0131635224
              2    3   10    0.0129091570
          --------------------------------

  Eigenvector is saved on CCRE_1_1  

  VIP all done  ! 
 @CHECKOUT-I, Total execution time (CPU/WALL):        0.21/       0.14 seconds.
--executable xvip finished with status     0 in        0.17 seconds (walltime).
  The final electronic energy is       -75.833521232744232 a.u. 
  This computation required                           18.05 seconds (walltime).
 
Timing info
28.889u 4.809s 0:18.06 186.4% 0+0k 8960+501888io 121pf+0w
 
Scratch space info (BEFORE cleaning //scratch/mdavis)
 
Cleaning up ...
Filesystem      Size  Used Avail Use% Mounted on
/dev/sda9       785G  366G  380G  50% /scratch
 
Scratch space info (AFTER cleaning //scratch/mdavis)
Filesystem      Size  Used Avail Use% Mounted on
/dev/sda9       785G  366G  380G  50% /scratch
